4.464460000000000095e-01 3.980580000000000229e-01 -1.595250000000000001e-01 7.207649999999999890e-01 -5.341069999999999984e-01 -7.676110000000000433e-01 -1.946940000000000059e-01 2.683740000000000014e-01 7.510329999999999506e-01 -5.649400000000000255e-02 3.160290000000000044e-01 -8.587900000000000533e-01 -2.361270000000000036e-01 -2.087859999999999994e-01 -3.098440000000000083e-01 3.847510000000000097e-01 4.668680000000000052e-01 -3.378430000000000044e-01 9.661100000000000243e-02 -2.864169999999999772e-01 -8.655799999999999605e-02 -4.766349999999999754e-01 7.390299999999999647e-02 1.158819999999999961e+00 -6.637650000000000494e-01 2.992409999999999792e-01 1.973097000000000101e+00 -2.281599999999999948e-02 1.409199999999999897e-01 6.141769999999999730e-01 2.863870000000000027e-01 -7.672080000000000011e-01 -1.617653999999999925e+00 -2.844289999999999874e-01 -1.668739999999999946e-01 -3.593040000000000123e-01
2.331789999999999974e-01 -1.291317999999999966e+00 7.248839999999999728e-01 -9.087000000000000632e-02 1.312921000000000005e+00 -1.922079999999999900e-01 4.070940000000000114e-01 -5.921060000000000212e-01 -1.803939999999999988e-01 -1.496599999999999875e-01 -9.024200000000000277e-02 -1.676800999999999986e+00 -1.301070000000000004e-01 -1.306529999999999969e+00 1.982569999999999888e-01 -1.880469999999999919e-01 4.607220000000000204e-01 2.219980000000000009e-01 9.997049999999999548e-01 -3.238690000000000180e-01 3.930879999999999930e-01 1.238749999999999990e-01 1.319687999999999972e+00 3.718589999999999951e-01 -5.482930000000000303e-01 6.374929999999999763e-01 -6.447999999999999739e-03 1.173599999999999990e-02 -1.858120000000000049e-01 -4.587299999999999711e-02 -7.984199999999999631e-02 -5.328270000000000506e-01 -3.419429999999999970e-01 -5.887700000000000156e-01 5.918790000000000440e-01 5.335790000000000255e-01
-4.110329999999999817e-01 -3.941080000000000139e-01 -6.344149999999999512e-01 -5.548300000000000454e-01 -1.556953999999999949e+00 2.282089999999999952e-01 1.070140000000000091e+00 5.223400000000000265e-01 -1.660582999999999920e+00 -6.844059999999999588e-01 1.415912999999999977e+00 2.186955000000000204e+00 1.138300000000000006e-01 3.413180000000000103e-01 -4.119600000000000345e-02 -6.144049999999999789e-01 4.106339999999999990e-01 8.774060000000000192e-01 1.556259999999999866e-01 3.722700000000000314e-02 3.590709999999999735e-01 3.847920000000000229e-01 -6.217040000000000344e-01 -1.378484000000000043e+00 1.735109999999999986e-01 -2.369900000000000131e-02 8.184839999999999893e-01 2.011380000000000112e-01 2.785899999999999835e-02 -2.248519999999999963e-01 -3.018049999999999899e-01 -1.776880000000000126e-01 -6.099769999999999914e-01 4.674420000000000242e-01 1.886300000000000129e-02 7.938000000000000611e-02
2.876360000000000028e-01 5.548729999999999496e-01 2.409599999999999936e-02 8.001629999999999576e-01 -8.119520000000000071e-01 -2.562690000000000246e-01 -3.179980000000000029e-01 6.057010000000000449e-01 6.026970000000000383e-01 -1.123324999999999907e+00 -2.978300000000000045e-02 -2.151095999999999897e+00 -2.374459999999999904e-01 -2.495729999999999893e-01 -2.089070000000000094e-01 6.029579999999999940e-01 8.696479999999999766e-01 -5.472310000000000230e-01 2.502420000000000200e-01 -2.941099999999999964e-02 -2.971099999999999852e-01 -2.013659999999999894e-01 1.080440000000000011e-01 7.528660000000000352e-01 -6.436410000000000187e-01 -1.029019999999999935e-01 9.304210000000000536e-01 8.321939999999999893e-01 2.455489999999999895e-01 1.932252000000000081e+00 -8.757500000000000007e-02 -8.736840000000000162e-01 -1.807560000000000000e-01 -1.618420000000000136e-01 -2.865090000000000137e-01 -6.009630000000000249e-01
-5.591899999999999649e-01 3.818779999999999952e-01 1.825787000000000049e+00 -1.196750000000000036e-01 -1.641569999999999974e-01 4.382099999999999884e-02 1.588700000000000112e-01 2.270099999999999896e-02 1.043563999999999936e+00 -1.822469999999999923e-01 6.085540000000000393e-01 -9.754420000000000313e-01 5.956209999999999560e-01 -4.748419999999999863e-01 -1.707114999999999938e+00 1.880400000000000127e-02 2.025000000000000133e-01 -1.017201999999999940e+00 -1.828780000000000128e-01 1.762019999999999975e-01 1.169126000000000110e+00 2.523159999999999847e-01 -5.522080000000000322e-01 -3.975600000000000245e-01 5.722399999999999709e-02 1.069259999999999933e-01 9.211129999999999596e-01 3.393800000000000289e-02 -2.177899999999999975e-02 5.063349999999999795e-01 -3.077320000000000055e-01 -3.318369999999999931e-01 -9.903669999999999973e-01 2.349489999999999912e-01 4.606199999999999878e-02 -4.220599999999999907e-01
-2.352750000000000119e-01 5.550589999999999691e-01 -1.454969999999999875e-01 1.047659999999999980e-01 1.937049999999999883e-01 -4.544700000000000129e-02 4.789769999999999861e-01 -4.083829999999999960e-01 4.011190000000000033e-01 5.928379999999999761e-01 -3.659799999999999859e-02 -2.136419999999999986e-01 -7.098100000000000243e-02 5.585869999999999447e-01 -1.988890000000000102e-01 2.517000000000000140e-03 -8.259509999999999907e-01 -3.538140000000000174e-01 2.382099999999999843e-02 3.368019999999999903e-01 7.947520000000000140e-01 1.364480000000000137e-01 -4.649730000000000252e-01 3.194500000000000117e-02 -4.426260000000000194e-01 2.766480000000000050e-01 1.388230000000000020e-01 9.554400000000000392e-02 -2.514950000000000241e-01 2.752180000000000182e-01 -7.281349999999999767e-01 -1.516290000000000138e-01 -8.995980000000000087e-01 4.210499999999999660e-02 2.182270000000000043e-01 2.150309999999999999e-01
-4.755159999999999942e-01 2.507486999999999799e+00 -2.931139999999999857e-01 -1.398369999999999891e-01 -1.355844000000000049e+00 7.379660000000000108e-01 1.045481000000000105e+00 -3.505610000000000115e-01 2.532039999999999846e+00 2.915699999999999958e-01 -3.051969999999999961e-01 5.188000000000000250e-02 -8.639670000000000405e-01 -1.223270000000000052e-01 -2.784387000000000167e+00 2.087870000000000004e-01 -1.966390000000000082e-01 -9.382700000000000484e-01 -1.685860000000000136e-01 -8.144700000000000550e-02 6.532249999999999446e-01 -1.056720000000000020e-01 -6.331499999999999628e-02 -1.154130000000000017e-01 6.109099999999999947e-02 5.226699999999999680e-01 -8.612279999999999935e-01 3.331900000000000139e-02 1.840350000000000041e-01 7.674799999999999678e-02 1.576500000000000123e-02 -1.323789999999999967e-01 3.095640000000000058e-01 9.756499999999999895e-02 -6.064850000000000518e-01 6.309900000000000508e-01
-6.026690000000000103e-01 -1.576702999999999966e+00 -4.167099999999999971e-02 4.520100000000000229e-01 1.036620000000000097e+00 -2.366179999999999950e-01 -1.778990000000000016e-01 1.113763000000000059e+00 -2.863290000000000002e-01 4.056799999999999851e-01 5.438720000000000221e-01 -8.106119999999999992e-01 1.411070000000000102e-01 -3.821760000000000157e-01 1.072057000000000038e+00 1.745710000000000039e-01 -6.689420000000000366e-01 -5.205030000000000490e-01 3.581019999999999759e-01 1.162555000000000005e+00 -2.470660000000000078e-01 -2.017639999999999989e-01 2.742129999999999845e-01 -5.914840000000000098e-01 7.744000000000000015e-03 -2.805719999999999881e-01 6.991070000000000340e-01 -6.677629999999999955e-01 -1.173438999999999899e+00 6.534780000000000033e-01 1.519220000000000015e-01 -4.474100000000000299e-02 7.490600000000000036e-02 -4.104100000000000109e-02 -4.447999999999999697e-03 2.347349999999999992e-01
-4.837210000000000121e-01 -7.182490000000000263e-01 4.077250000000000041e-01 5.000590000000000312e-01 7.767290000000000028e-01 4.535390000000000255e-01 -1.416449999999999931e-01 -1.782179999999999875e-01 -9.212749999999999551e-01 -2.574420000000000042e-01 4.482200000000000073e-02 -2.473990000000000078e-01 -9.286820000000000075e-01 -2.094247999999999887e+00 6.426500000000000268e-02 -3.872599999999999654e-02 3.791100000000000025e-02 -1.183210000000000095e+00 -3.766200000000000103e-02 -8.493000000000000549e-01 5.674259999999999859e-01 9.289619999999999544e-01 2.094904000000000099e+00 5.731399999999999689e-02 3.068890000000000229e-01 2.635850000000000137e-01 -1.633199999999999930e-01 -5.128770000000000273e-01 2.509560000000000124e-01 3.878139999999999921e-01 4.969160000000000244e-01 -5.239570000000000061e-01 6.646339999999999471e-01 1.679289999999999949e-01 8.950669999999999460e-01 -8.751299999999999357e-02
-3.361310000000000131e-01 -2.071413000000000171e+00 -2.106733999999999885e+00 2.643909999999999871e-01 9.174179999999999557e-01 -1.858350000000000002e-01 2.650399999999999978e-02 2.406079999999999885e-01 -6.242790000000000283e-01 3.097070000000000101e-01 5.003649999999999487e-01 -4.017209999999999948e-01 1.858229999999999882e-01 -4.186630000000000074e-01 8.922290000000000498e-01 -1.378459999999999963e-01 8.327329999999999455e-01 1.734772999999999898e+00 3.744129999999999958e-01 8.413730000000000375e-01 6.696000000000000563e-02 6.167500000000000066e-02 2.402209999999999901e-01 -5.105030000000000401e-01 -2.150200000000000028e-02 -1.907540000000000069e-01 1.452118000000000020e+00 -7.036149999999999904e-01 -8.706709999999999727e-01 2.776299999999999879e-01 1.446999999999999953e-01 -4.968399999999999900e-02 -7.763240000000000141e-01 -1.681189999999999907e-01 2.846600000000000172e-02 1.816850000000000132e-01
-8.974830000000000307e-01 1.247006999999999977e+00 -6.863879999999999981e-01 2.072869999999999990e-01 -5.761800000000000255e-02 3.832360000000000211e-01 1.101806000000000063e+00 -3.631949999999999901e-01 2.453948000000000018e+00 2.393949999999999967e-01 -3.865129999999999955e-01 -2.863620000000000054e-01 -8.253319999999999546e-01 -2.706359999999999877e-01 -1.513476999999999961e+00 1.338010000000000033e-01 -2.685799999999999993e-02 -1.071882000000000001e+00 -1.376040000000000041e-01 -1.488180000000000058e-01 7.661670000000000424e-01 5.413199999999999956e-02 7.703000000000000125e-02 1.538970000000000060e-01 -3.716000000000000119e-03 6.658410000000000162e-01 -7.890759999999999996e-01 7.283299999999999497e-02 3.057329999999999770e-01 7.556899999999999729e-02 -1.354009999999999936e-01 -3.088629999999999987e-01 8.995100000000000318e-02 1.902840000000000087e-01 -7.331090000000000106e-01 4.244160000000000155e-01
2.794139999999999957e-01 1.827749999999999930e-01 -3.160700000000000315e-02 -5.829210000000000225e-01 -1.070860000000000006e-01 3.151660000000000017e-01 5.872519999999999962e-01 -2.752609999999999779e-01 -1.081018000000000034e+00 -2.828760000000000163e-01 1.194199999999999949e-02 1.830295000000000005e+00 -4.410620000000000096e-01 -1.820610000000000006e-01 5.559500000000000552e-01 -2.151500000000000079e-01 2.040669999999999984e-01 3.588489999999999736e-01 -5.256950000000000234e-01 -6.806250000000000355e-01 1.694279999999999953e-01 4.738990000000000147e-01 3.762059999999999849e-01 -3.927430000000000088e-01 2.698169999999999735e-01 -1.009160000000000057e-01 -5.705320000000000391e-01 1.443989999999999996e-01 -8.048600000000000199e-02 -4.928009999999999891e-01 4.553269999999999817e-01 6.186730000000000285e-01 3.609699999999999714e-02 -1.624029999999999918e-01 3.277200000000000252e-02 -6.970840000000000369e-01
1.160544000000000020e+00 7.784739999999999993e-01 -3.220830000000000082e-01 -2.313999999999999946e-01 -1.738177000000000083e+00 -4.613639999999999963e-01 -4.667870000000000075e-01 4.479960000000000053e-01 1.624579999999999913e-01 -9.453129999999999589e-01 8.709949999999999637e-01 1.677996000000000043e+00 9.300969999999999516e-01 1.904449999999999976e+00 9.120100000000000429e-02 9.682589999999999808e-01 -1.253575000000000106e+00 4.494520000000000182e-01 -1.810450000000000115e-01 -2.153049999999999964e-01 -2.840110000000000134e-01 -9.310720000000000107e-01 -1.907005999999999979e+00 1.426179999999999948e-01 1.685510000000000064e-01 -2.934550000000000214e-01 -3.270190000000000041e-01 2.071999999999999884e-02 -9.620189999999999575e-01 1.104669999999999958e-01 -8.191960000000000353e-01 1.812772999999999968e+00 -1.142371000000000025e+00 3.266410000000000147e-01 5.548480000000000079e-01 -9.734399999999999997e-02
-4.939319999999999822e-01 -3.621460000000000234e-01 7.935459999999999736e-01 2.252850000000000130e-01 7.395260000000000167e-01 -1.402710000000000068e-01 -7.371830000000000327e-01 -1.231268000000000029e+00 -7.369310000000000027e-01 5.335609999999999520e-01 6.947590000000000154e-01 -6.473099999999999687e-02 -1.997120000000000006e-01 -4.848489999999999744e-01 3.524780000000000135e-01 7.673619999999999886e-01 1.303074999999999983e+00 -4.035400000000000098e-01 -1.692869999999999930e-01 7.010000000000000172e-04 7.509909999999999641e-01 2.032899999999999985e-02 2.781270000000000131e-01 -3.753210000000000157e-01 -2.523940000000000072e-01 -1.744549999999999990e-01 -3.524769999999999848e-01 1.822840000000000016e-01 1.733149999999999968e-01 1.683699999999999919e-01 -3.074109999999999898e-01 -5.205140000000000322e-01 -4.929000000000000048e-02 4.310970000000000080e-01 -4.162699999999999734e-01 5.717300000000000160e-02
-1.377240000000000131e-01 4.553200000000000303e-02 -4.750039999999999818e-01 1.728240000000000054e-01 4.136920000000000042e-01 2.144240000000000035e-01 -3.566559999999999730e-01 -7.416399999999999382e-02 6.684250000000000469e-01 7.685870000000000202e-01 1.557749999999999968e-01 -5.725599999999999579e-01 1.755400000000000016e-01 -8.803400000000000114e-02 1.078483999999999998e+00 -3.619580000000000020e-01 -1.124351000000000100e+00 -1.081720000000000043e-01 -3.609300000000000008e-02 3.484329999999999927e-01 -6.046749999999999625e-01 -5.184389999999999832e-01 3.854949999999999766e-01 -1.805539999999999923e-01 -1.466389999999999916e-01 -2.894010000000000193e-01 -1.190420000000000034e+00 7.350600000000000189e-02 -6.613639999999999519e-01 6.170000000000000137e-03 2.478500000000000147e-02 9.251770000000000271e-01 1.147456000000000031e+00 3.422669999999999879e-01 -3.679099999999999732e-02 1.642499999999999863e-02
-4.678390000000000049e-01 -2.029904000000000153e+00 -1.564300999999999942e+00 1.675159999999999982e-01 2.469231000000000176e+00 -6.747542000000000151e+00 -1.086000000000000021e-01 -2.716589999999999838e-01 -5.761490000000000222e-01 2.660319999999999907e-01 3.766820000000000168e-01 -5.443160000000000220e-01 3.957390000000000074e-01 1.582460999999999895e+00 2.038661999999999974e+00 2.229399999999999993e-01 2.751970000000000249e-01 4.806050000000000044e-01 7.743729999999999780e-01 -6.897910000000000430e-01 -2.973160000000000025e+00 -1.218299999999999939e-01 6.371559999999999446e-01 4.444589999999999930e-01 -4.089659999999999962e-01 7.724599999999999522e-02 3.261049999999999782e-01 3.240190000000000015e-01 -6.072189999999999532e-01 -1.677430000000000032e-01 -3.763999999999999985e-03 -2.828529000000000071e+00 7.011719000000000257e+00 -1.039620999999999906e+00 1.009128999999999943e+00 2.271662000000000070e+00
-5.215309999999999668e-01 -1.743200000000000027e-01 4.680619999999999781e-01 2.999600000000000044e-01 1.060109999999999941e-01 -1.909399999999999986e-02 -4.134299999999999781e-02 3.099480000000000013e-01 8.613899999999999335e-02 1.412239999999999884e-01 7.839799999999999547e-02 5.920900000000000052e-01 -5.671009999999999662e-01 -1.124298000000000020e+00 4.894899999999999946e-02 -3.851029999999999731e-01 2.191520000000000135e-01 -3.470400000000000151e-01 -2.083649999999999947e-01 -1.157418999999999976e+00 -7.251499999999999613e-02 5.669980000000000020e-01 1.124748000000000081e+00 5.146300000000000180e-02 2.638980000000000214e-01 -1.644800000000000081e-02 -1.913870000000000016e-01 -8.703299999999999925e-02 -6.542379999999999862e-01 -7.783700000000000063e-01 5.163759999999999462e-01 6.776899999999999591e-02 3.723110000000000031e-01 2.202099999999999891e-02 1.220696999999999921e+00 -2.106099999999999917e-01
5.254670000000000174e-01 1.927669999999999939e-01 -7.949779999999999625e-01 -3.527429999999999732e-01 -6.970999999999999419e-02 2.583110000000000128e-01 1.872379999999999878e-01 7.242099999999999926e-02 7.749230000000000285e-01 -5.572099999999999970e-02 -3.770879999999999788e-01 -1.373655999999999988e+00 6.654599999999999405e-02 1.545229999999999937e-01 -1.028400000000000009e-01 3.298719999999999986e-01 -1.239713000000000065e+00 3.419309999999999850e-01 -2.421900000000000094e-02 1.312972999999999946e+00 -3.294860000000000011e-01 1.313269999999999993e-01 5.849109999999999587e-01 4.854539999999999966e-01 -9.943999999999999714e-03 -1.424442999999999904e+00 6.325950000000000184e-01 1.132179999999999992e-01 6.486800000000000344e-01 1.603999999999999957e-03 -4.042830000000000035e-01 4.412550000000000083e-01 3.225779999999999759e-01 -5.067570000000000130e-01 -2.965749999999999775e-01 -2.164369999999999905e-01
6.823259999999999881e-01 3.171660000000000035e-01 6.789300000000000335e-01 -8.038539999999999575e-01 -1.307471000000000050e+00 -3.528499999999999970e-01 -3.624979999999999869e-01 -5.393769999999999953e-01 1.408000000000000050e-02 -5.909200000000000008e-01 -1.113385000000000069e+00 -2.980169999999999764e-01 4.817159999999999775e-01 7.978819999999999801e-01 5.794999999999999804e-03 1.848380000000000023e-01 1.183049999999999935e-01 7.620149999999999979e-01 2.856000000000000032e-03 -8.628099999999999659e-02 1.001123999999999903e+00 7.284119999999999484e-01 1.308219999999999938e+00 -4.825630000000000197e-01 -4.743999999999999884e-01 -5.241780000000000328e-01 -8.816699999999999537e-01 4.774610000000000243e-01 9.652749999999999941e-01 -2.372289999999999954e-01 -5.706599999999999867e-02 -1.564119999999999955e-01 -4.674070000000000169e-01 -2.688710000000000266e-01 2.202580000000000093e-01 2.577940000000000231e-01
5.621270000000000433e-01 -3.093831999999999915e+00 6.062630999999999659e+00 -2.317639999999999978e-01 -2.564179999999999793e-01 1.605640000000000123e-01 -1.708199000000000023e+00 -6.844959999999999933e-01 -4.384063000000000265e+00 5.012839999999999518e-01 -3.008379999999999943e-01 2.110849999999999949e-01 5.533400000000000540e-01 5.283069999999999711e-01 1.570878999999999914e+00 -4.688459999999999850e-01 -3.532750000000000057e-01 -7.565450000000000230e-01 2.661430000000000184e-01 -1.210989999999999983e-01 -6.029740000000000100e-01 -1.465031999999999890e+00 3.455261000000000138e+00 4.356199999999999656e-02 7.248000000000000276e-02 3.222499999999999809e-01 -1.057264999999999899e+00 7.525669999999999860e-01 -3.159266000000000130e+00 1.145629999999999982e-01 7.527350000000000430e-01 9.021940000000000515e-01 1.542240999999999973e+00 4.131650000000000045e-01 2.761213000000000140e+00 -2.904678000000000093e+00
4.459219999999999851e-01 -4.262200000000000016e-02 1.265492999999999979e+00 -6.563830000000000497e-01 2.793724999999999792e+00 -3.963109999999999911e+00 -4.129570000000000185e-01 -1.122041000000000066e+00 4.307790000000000230e-01 3.481509999999999883e-01 5.301649999999999974e-01 -5.556250000000000355e-01 -3.553350000000000120e-01 -2.020359999999999934e-01 -1.927760000000000029e-01 -4.020560000000000245e-01 6.420900000000000218e-02 1.075552000000000064e+00 -1.352122999999999964e+00 3.316419999999999924e-01 -1.873996999999999913e+00 9.926070000000000171e-01 -3.668744999999999923e+00 1.737792999999999921e+00 -1.407059999999999977e-01 9.085539999999999727e-01 1.975243000000000082e+00 2.109870000000000079e-01 -2.312720000000000053e-01 2.964350000000000041e-01 5.882899999999999796e-01 9.155809999999999782e-01 -1.387859999999999927e-01 7.336009999999999476e-01 -2.771600000000000175e-01 -5.700299999999999812e-02
-3.522339999999999915e-01 -5.534869999999999512e-01 2.225519999999999998e-01 9.832299999999999374e-02 6.722999999999999809e-02 -1.276539999999999897e-01 -6.603459999999999885e-01 2.247650999999999843e+00 -2.320139999999999980e-01 3.505699999999999927e-01 2.692200000000000149e-01 -3.794290000000000163e-01 4.800299999999999706e-02 9.094199999999999506e-02 2.311920000000000086e-01 8.016069999999999585e-01 -1.872838000000000003e+00 -5.296520000000000117e-01 -6.133999999999999696e-03 6.839509999999999756e-01 1.769099999999999839e-02 -2.861000000000000210e-01 6.383700000000000485e-02 -5.448699999999999655e-01 -2.803500000000000089e-02 -1.013410000000000005e-01 7.825000000000000011e-02 -2.802430000000000199e-01 -6.757539999999999658e-01 4.466289999999999982e-01 1.871539999999999870e-01 -2.013699999999999865e-02 5.113950000000000440e-01 1.274349999999999927e-01 -1.992730000000000057e-01 3.059089999999999865e-01
1.929859999999999909e-01 7.371769999999999712e-01 8.447879999999999834e-01 2.815079999999999805e-01 -1.251363999999999921e+00 -3.909020000000000272e-01 -1.470079999999999998e-01 6.526480000000000059e-01 -3.742900000000000116e-01 -9.656590000000000451e-01 -7.451199999999999490e-02 -5.612398999999999916e+00 -2.279319999999999957e-01 4.027919999999999834e-01 2.713880000000000181e-01 1.146605000000000096e+00 -3.253099999999999881e-01 5.155762000000000178e+00 -3.636840000000000073e-01 1.577900000000000136e-01 -3.326390000000000180e-01 2.735500000000000084e-02 2.437120000000000120e-01 2.194770000000000054e-01 -2.512240000000000029e-01 -2.405079999999999996e-01 1.414009999999999989e-01 2.315820000000000101e-01 -2.041709999999999914e-01 2.830369999999999830e-01 -1.506750000000000034e-01 -7.019599999999999451e-02 -1.666229999999999933e-01 2.261469999999999869e-01 -2.806000000000000161e-02 -3.899999999999999994e-02
-7.606070000000000331e-01 -1.183295999999999903e+00 2.782490000000000241e-01 5.007200000000000539e-01 1.361482999999999999e+00 3.755839999999999734e-01 1.910099999999999992e-02 -2.152509999999999979e-01 3.984949999999999881e-01 8.133500000000000452e-02 -6.328799999999999704e-02 1.787920000000000065e-01 1.911509999999999876e-01 1.417918000000000012e+00 2.914399999999999977e-02 -2.169000000000000095e-02 -1.053530000000000022e-01 -1.121180999999999983e+00 4.925619999999999998e-01 8.647730000000000139e-01 -1.321239999999999915e-01 -1.910999999999999921e-01 -1.415620000000000100e+00 1.728499999999999828e-02 -4.155130000000000212e-01 9.130859999999999532e-01 4.659960000000000213e-01 -1.218400000000000039e-01 9.917390000000000372e-01 3.757409999999999917e-01 3.497900000000000315e-02 -1.184681000000000095e+00 -1.882599999999999899e-02 1.909019999999999884e-01 -1.381510999999999934e+00 -8.471549999999999914e-01
9.094399999999999706e-02 2.916999999999999888e-03 -3.729319999999999857e-01 -8.245489999999999764e-01 -1.594861000000000084e+00 3.284309999999999730e-01 2.809909999999999908e-01 -7.668369999999999909e-01 -1.011098000000000052e+00 7.037099999999999467e-01 -4.784089999999999732e-01 -1.861700000000000160e-02 -5.701540000000000497e-01 2.295419999999999960e-01 -2.774039999999999839e-01 7.210849999999999760e-01 1.375448999999999922e+00 -2.498360000000000025e-01 -7.432720000000000438e-01 4.534150000000000125e-01 2.551649999999999974e+00 3.339920000000000111e-01 -3.264500000000000041e-02 -1.639110999999999985e+00 -2.601280000000000259e-01 6.593210000000000459e-01 1.558019999999999960e-01 4.515049999999999897e-01 -1.262560000000000071e-01 -9.833089999999999886e-01 1.262350000000000139e-01 6.321189999999999864e-01 1.662714000000000025e+00 -3.103589999999999960e-01 -3.537549999999999861e-01 -1.462900000000000034e-01
2.837699999999999945e-02 -5.112529999999999575e-01 -1.229409999999999947e-01 -7.472640000000000393e-01 1.261918000000000095e+00 -1.412660999999999945e+00 6.060600000000000015e-02 -4.769000000000000322e-02 1.033827000000000051e+00 1.104082000000000008e+00 -1.222645999999999900e+00 -1.312316000000000038e+00 -1.285759999999999958e-01 1.561140000000000028e-01 -1.071610000000000062e-01 4.123530000000000251e-01 -1.310479999999999978e-01 1.676839999999999997e-01 -1.257570000000000077e-01 -1.157389999999999947e-01 -2.801500000000000101e-01 4.122540000000000093e-01 2.174039999999999861e-01 9.576360000000000428e-01 1.850130000000000108e-01 9.922799999999999676e-02 4.922499999999999792e-02 -7.891930000000000334e-01 9.150800000000000600e-02 1.279004999999999947e+00 -4.148430000000000173e-01 -1.082820000000000032e-01 4.485149999999999970e-01 2.949999999999999931e-03 3.104859999999999842e-01 -7.006630000000000358e-01
-5.698370000000000379e-01 2.785460000000000158e-01 4.665690000000000115e-01 3.122320000000000095e-01 -3.706559999999999855e-01 2.252159999999999995e-01 -1.426219999999999988e-01 -1.501800000000000079e-01 1.168395000000000072e+00 1.893829999999999958e-01 1.313090000000000090e-01 3.456759999999999833e-01 -9.693200000000000427e-02 1.092985000000000095e+00 3.528599999999999792e-02 -2.021660000000000124e-01 4.422700000000000242e-02 -7.278729999999999922e-01 4.233669999999999933e-01 1.389769000000000032e+00 -1.006798999999999999e+00 9.710299999999999487e-02 -1.093288999999999955e+00 2.506600000000000147e-02 -2.895309999999999828e-01 8.098109999999999475e-01 6.629270000000000440e-01 -5.393200000000000077e-02 1.794729999999999936e-01 -9.831199999999999661e-02 2.112040000000000028e-01 -4.181810000000000249e-01 -1.305340000000000111e-01 1.217320000000000069e-01 -1.893812999999999969e+00 -9.656160000000000299e-01
-2.006320000000000048e-01 1.072800999999999894e+00 3.837270999999999876e+00 2.943529999999999758e-01 2.333729999999999971e-01 -3.751149999999999762e-01 -1.736400000000000096e-02 7.584109999999999463e-01 -1.005363999999999924e+00 -5.378859999999999753e-01 -3.914739999999999887e-01 9.587769999999999904e-01 -2.522599999999999842e-02 3.676809999999999801e-01 1.004780999999999924e+00 5.802119999999999500e-01 1.729956000000000049e+00 -6.500179999999999847e-01 3.422029999999999794e-01 7.510989999999999611e-01 -3.124741999999999909e+00 -4.404600000000000182e-02 -1.974984999999999991e+00 -3.959989999999999899e-01 -2.566320000000000268e-01 -2.308790000000000009e-01 -4.011609999999999898e-01 -6.455279999999999907e-01 -1.598171000000000008e+00 4.958029999999999937e-01 6.468399999999999705e-01 -8.673640000000000239e-01 -7.273730000000000473e-01 -1.362929999999999975e-01 1.495509999999999895e-01 3.831410000000000093e-01
-2.240749999999999964e-01 4.087500000000000161e-02 1.822660000000000113e-01 3.463399999999999812e-02 8.214799999999999880e-02 1.615880000000000094e-01 -6.230000000000000121e-02 7.083200000000000607e-02 1.166967000000000088e+00 6.693350000000000133e-01 -1.217999999999999899e-03 -1.477012999999999909e+00 8.963499999999999801e-01 -2.696479999999999988e-01 1.644303000000000070e+00 -2.049940000000000095e-01 -1.750520000000000131e-01 8.866699999999999582e-02 -1.248999999999999937e-02 1.594540000000000124e-01 -6.277169999999999694e-01 -4.916769999999999752e-01 7.119299999999999518e-01 -3.979739999999999944e-01 -9.271740000000000537e-01 1.293700000000000128e-01 -2.149192000000000213e+00 -6.008600000000000052e-02 -8.614439999999999875e-01 1.095072000000000045e+00 4.740099999999999869e-02 1.733049999999999868e-01 5.633610000000000007e-01 3.350750000000000117e-01 -6.055300000000000266e-02 -2.503279999999999950e-01
7.757070000000000354e-01 9.902370000000000339e-01 9.124740000000000073e-01 -4.999560000000000115e-01 -6.385469999999999757e-01 -2.879010000000000180e-01 -6.218639999999999723e-01 4.231800000000000145e-02 -2.361971000000000043e+00 -1.139435999999999893e+00 -2.558298000000000183e+00 2.633469999999999978e-01 3.161450000000000093e-01 2.631789999999999963e-01 2.582200000000000051e-01 2.956100000000000047e-02 1.782590000000000008e-01 3.355719999999999814e-01 3.559999999999999797e-04 -3.352200000000000318e-02 9.894319999999999782e-01 4.579679999999999862e-01 5.789419999999999566e-01 -6.929229999999999556e-01 -4.083729999999999860e-01 -1.279733999999999927e+00 -4.993830000000000213e-01 9.737280000000000380e-01 2.399439999999999795e+00 -9.117939999999999934e-01 4.987989999999999924e-01 1.910129999999999884e-01 1.556040000000000090e+00 -3.826339999999999741e-01 -1.332869999999999888e-01 4.388870000000000271e-01
-3.779250000000000109e-01 1.483639999999999959e-01 2.200439999999999896e-01 6.440759999999999819e-01 5.588200000000000112e-02 -2.079999999999999905e-01 -2.255310000000000092e-01 -5.309310000000000418e-01 8.693359999999999976e-01 -4.960470000000000157e-01 1.092709999999999931e-01 1.017370000000000108e+00 3.979329999999999812e-01 -1.934873000000000065e+00 -4.827805999999999820e+00 -4.295350000000000001e-01 1.681819999999999982e-01 1.203767999999999949e+00 -1.132459999999999994e-01 7.194599999999999607e-02 1.461143999999999998e+00 -5.719499999999999584e-01 7.462750000000000217e-01 -1.571396999999999933e+00 -1.304849999999999899e-01 2.120039999999999980e-01 -1.546980000000000022e-01 -2.173209999999999864e-01 -2.262300000000000075e-02 -6.033880000000000354e-01 1.108937000000000062e+00 4.621290000000000120e-01 2.716504000000000030e+00 4.110940000000000150e-01 5.143739999999999979e-01 -1.228770000000000001e-01
-7.678799999999999515e-02 5.944599999999999884e-02 -3.963110000000000244e-01 -1.704660000000000064e-01 1.325929999999999886e-01 2.447749999999999926e-01 2.984530000000000238e-01 -9.499399999999999511e-02 7.557000000000000349e-03 7.569029999999999925e-01 1.109502999999999906e+00 1.721549999999999914e+00 7.315299999999999581e-02 -1.863249999999999906e-01 -5.194399999999999712e-02 -3.463140000000000107e-01 4.142750000000000044e-01 4.368500000000000161e-01 5.268899999999999972e-02 -3.283360000000000167e-01 6.614820000000000144e-01 3.144899999999999779e-02 -1.081541000000000086e+00 1.693300000000000083e-01 2.853699999999999987e-02 1.342220000000000080e-01 -5.393339999999999801e-01 6.779999999999999569e-03 7.351000000000000589e-02 -1.046659999999999924e+00 -1.739200000000000121e-02 -2.600609999999999866e-01 1.397799999999999876e-01 -6.370059999999999611e-01 2.770699999999999899e-02 -1.347075000000000022e+00