5.428682000000000230e+00 0.000000000000000000e+00 0.000000000000000000e+00 0.000000000000000000e+00 3.875617999999999785e+00 0.000000000000000000e+00 -5.487000000000000151e-06 0.000000000000000000e+00 1.985735999999999990e+01
5.428682000000000230e+00 0.000000000000000000e+00 0.000000000000000000e+00 0.000000000000000000e+00 3.875617999999999785e+00 0.000000000000000000e+00 -5.487000000000000151e-06 0.000000000000000000e+00 1.985735999999999990e+01
5.428682000000000230e+00 0.000000000000000000e+00 0.000000000000000000e+00 0.000000000000000000e+00 3.875617999999999785e+00 0.000000000000000000e+00 -5.487000000000000151e-06 0.000000000000000000e+00 1.985735999999999990e+01
5.428682000000000230e+00 0.000000000000000000e+00 0.000000000000000000e+00 0.000000000000000000e+00 3.875617999999999785e+00 0.000000000000000000e+00 -5.487000000000000151e-06 0.000000000000000000e+00 1.985735999999999990e+01
