2.535000000000000142e+00 1.899110000000000076e+00 4.242090000000000138e+00 3.926999999999999935e-02 2.914100000000000024e-01 3.412499999999999978e-01 4.280619999999999870e+00 1.503999999999999955e-02 5.325099999999999945e+00 2.076900000000000190e+00 1.953040000000000109e+00 1.788089999999999957e+00 3.031969999999999832e+00 1.609080000000000066e+00 6.743109999999999715e+00 1.324580000000000091e+00 1.851299999999999890e-01 5.178899999999999615e+00 4.246199999999999974e+00 1.842950000000000088e+00 1.001329999999999920e+01 5.672599999999999865e-01 2.033049999999999802e+00 6.401320000000000121e+00 4.716730000000000089e+00 1.146999999999999929e-02 8.075229999999999464e+00 3.219259999999999788e+00 5.831999999999999684e-02 1.953100000000000114e-01 4.428379999999999761e+00 2.061510000000000176e+00 1.499710000000000099e+00 9.697099999999999609e-01 3.870039999999999925e+00 2.766869999999999941e+00 5.279939999999999856e+00 2.247689999999999966e+00 4.064639999999999809e+00 1.013079999999999981e+00 1.789490000000000025e+00 8.588279999999999248e+00 2.317839999999999900e+00 3.541679999999999939e+00 7.901919999999999611e+00 3.386029999999999873e+00 3.723770000000000024e+00 2.879710000000000214e+00
2.539810000000000123e+00 2.231219999999999981e+00 4.225590000000000401e+00 4.321900000000000186e-01 3.820580000000000087e+00 3.740999999999999881e-01 4.194009999999999572e+00 3.871929999999999872e+00 5.282429999999999737e+00 1.737840000000000051e+00 1.764529999999999932e+00 1.621410000000000018e+00 3.275869999999999838e+00 1.763549999999999951e+00 6.562470000000000248e+00 1.354519999999999946e+00 2.581600000000000006e-01 5.248079999999999856e+00 4.005510000000000126e+00 1.753789999999999960e+00 1.002100000000000080e+01 3.958800000000000097e-01 2.229089999999999794e+00 6.393410000000000259e+00 4.841660000000000075e+00 3.763049999999999784e+00 7.887990000000000279e+00 3.116499999999999826e+00 3.873299999999999965e+00 6.361099999999999532e-01 4.531229999999999869e+00 2.110619999999999941e+00 1.474860000000000060e+00 8.167299999999999560e-01 3.791100000000000136e+00 2.895239999999999814e+00 5.237709999999999866e+00 1.824240000000000084e+00 4.035929999999999573e+00 9.809499999999999886e-01 1.788569999999999993e+00 8.753619999999999735e+00 2.213179999999999925e+00 3.739149999999999974e+00 7.663190000000000168e+00 3.759180000000000188e+00 1.767700000000000105e-01 2.929359999999999964e+00
2.517450000000000188e+00 2.109739999999999949e+00 4.258539999999999992e+00 2.566100000000000048e-01 4.610999999999999821e-02 3.137400000000000189e-01 4.269999999999999574e+00 3.833509999999999973e+00 5.230780000000000207e+00 1.852249999999999952e+00 1.823450000000000015e+00 1.696939999999999893e+00 3.170999999999999819e+00 1.695389999999999953e+00 6.616080000000000183e+00 1.306219999999999937e+00 2.790300000000000002e-01 5.174179999999999779e+00 4.074010000000000353e+00 1.782589999999999897e+00 1.009329999999999927e+01 4.743299999999999739e-01 2.159229999999999983e+00 6.391549999999999621e+00 4.791350000000000442e+00 3.798309999999999853e+00 7.945800000000000196e+00 3.205789999999999917e+00 3.868269999999999875e+00 4.714900000000000202e-01 4.456279999999999575e+00 2.166640000000000121e+00 1.478250000000000064e+00 8.456599999999999673e-01 3.746319999999999872e+00 2.950959999999999805e+00 5.280619999999999870e+00 2.089269999999999960e+00 4.065140000000000420e+00 1.010639999999999983e+00 1.823590000000000044e+00 8.651149999999999451e+00 2.263199999999999878e+00 3.639959999999999862e+00 7.741959999999999731e+00 3.657360000000000166e+00 2.257999999999999938e-02 2.924939999999999873e+00
2.510660000000000114e+00 1.989670000000000050e+00 4.262109999999999843e+00 1.126400000000000040e-01 1.647899999999999920e-01 3.028899999999999926e-01 4.310290000000000177e+00 3.826239999999999863e+00 5.238999999999999879e+00 1.970779999999999976e+00 1.892949999999999910e+00 1.756869999999999932e+00 3.084680000000000089e+00 1.647669999999999968e+00 6.681619999999999671e+00 1.297660000000000036e+00 2.649099999999999788e-01 5.149720000000000297e+00 4.154410000000000380e+00 1.811900000000000066e+00 1.009140000000000015e+01 5.404499999999999860e-01 2.084480000000000111e+00 6.401760000000000339e+00 4.744550000000000267e+00 3.843659999999999854e+00 8.010839999999999961e+00 3.249779999999999891e+00 1.548000000000000070e-02 3.163799999999999946e-01 4.416750000000000398e+00 2.144820000000000171e+00 1.491069999999999895e+00 8.988000000000000433e-01 3.762999999999999901e+00 2.912999999999999812e+00 5.292189999999999728e+00 2.255459999999999798e+00 4.077219999999999622e+00 1.024869999999999948e+00 1.832549999999999901e+00 8.581730000000000302e+00 2.296479999999999855e+00 3.564010000000000122e+00 7.822449999999999903e+00 3.527769999999999850e+00 3.782410000000000050e+00 2.906740000000000101e+00
