4.446589999999999598e+00 0.000000000000000000e+00 0.000000000000000000e+00 1.949999999999999965e-06 4.223609999999999864e+00 0.000000000000000000e+00 6.204000000000000232e-06 1.880000000000000000e-06 1.922581500000000077e+01
4.713385999999999854e+00 0.000000000000000000e+00 0.000000000000000000e+00 1.949999999999999965e-06 4.477026999999999646e+00 0.000000000000000000e+00 4.364999999999999712e-06 1.323000000000000081e-06 1.433936399999999978e+01
4.713385999999999854e+00 0.000000000000000000e+00 0.000000000000000000e+00 1.949999999999999965e-06 4.477026999999999646e+00 0.000000000000000000e+00 4.364999999999999712e-06 1.323000000000000081e-06 1.433936399999999978e+01
4.713385999999999854e+00 0.000000000000000000e+00 0.000000000000000000e+00 1.949999999999999965e-06 4.477026999999999646e+00 0.000000000000000000e+00 5.735000000000000148e-06 1.737999999999999919e-06 1.883936399999999978e+01
4.713385999999999854e+00 0.000000000000000000e+00 0.000000000000000000e+00 1.949999999999999965e-06 4.477026999999999646e+00 0.000000000000000000e+00 4.821999999999999742e-06 1.461000000000000073e-06 1.583936399999999978e+01
4.624454000000000065e+00 0.000000000000000000e+00 0.000000000000000000e+00 1.949999999999999965e-06 4.392554999999999765e+00 0.000000000000000000e+00 4.850999999999999803e-06 1.469999999999999902e-06 1.563484700000000061e+01
4.713385999999999854e+00 0.000000000000000000e+00 0.000000000000000000e+00 1.949999999999999965e-06 4.477026999999999646e+00 0.000000000000000000e+00 4.821999999999999742e-06 1.461000000000000073e-06 1.583936399999999978e+01
4.535522000000000276e+00 0.000000000000000000e+00 0.000000000000000000e+00 1.949999999999999965e-06 4.308081999999999745e+00 0.000000000000000000e+00 4.565000000000000339e-06 1.382999999999999930e-06 1.443033100000000069e+01
4.713385999999999854e+00 0.000000000000000000e+00 0.000000000000000000e+00 1.949999999999999965e-06 4.477026999999999646e+00 0.000000000000000000e+00 4.821999999999999742e-06 1.461000000000000073e-06 1.583936399999999978e+01
4.713385999999999854e+00 0.000000000000000000e+00 0.000000000000000000e+00 1.949999999999999965e-06 4.477026999999999646e+00 0.000000000000000000e+00 6.039999999999999769e-06 1.830000000000000055e-06 1.983936399999999978e+01
4.713385999999999854e+00 0.000000000000000000e+00 0.000000000000000000e+00 1.949999999999999965e-06 4.477026999999999646e+00 0.000000000000000000e+00 4.821999999999999742e-06 1.461000000000000073e-06 1.583936399999999978e+01
4.713385999999999854e+00 0.000000000000000000e+00 0.000000000000000000e+00 1.949999999999999965e-06 4.477026999999999646e+00 0.000000000000000000e+00 5.735000000000000148e-06 1.737999999999999919e-06 1.883936399999999978e+01
4.713385999999999854e+00 0.000000000000000000e+00 0.000000000000000000e+00 1.949999999999999965e-06 4.477026999999999646e+00 0.000000000000000000e+00 5.735000000000000148e-06 1.737999999999999919e-06 1.883936399999999978e+01
4.624454000000000065e+00 0.000000000000000000e+00 0.000000000000000000e+00 1.949999999999999965e-06 4.392554999999999765e+00 0.000000000000000000e+00 4.541000000000000230e-06 1.376000000000000039e-06 1.463484700000000061e+01
4.713385999999999854e+00 0.000000000000000000e+00 0.000000000000000000e+00 1.949999999999999965e-06 4.477026999999999646e+00 0.000000000000000000e+00 4.364999999999999712e-06 1.323000000000000081e-06 1.433936399999999978e+01
4.713385999999999854e+00 0.000000000000000000e+00 0.000000000000000000e+00 1.949999999999999965e-06 4.477026999999999646e+00 0.000000000000000000e+00 5.431000000000000179e-06 1.645999999999999995e-06 1.783936399999999978e+01
4.268727000000000160e+00 0.000000000000000000e+00 0.000000000000000000e+00 1.949999999999999965e-06 4.054666000000000103e+00 0.000000000000000000e+00 5.652999999999999917e-06 1.712999999999999947e-06 1.681678199999999990e+01
4.624454000000000065e+00 0.000000000000000000e+00 0.000000000000000000e+00 1.949999999999999965e-06 4.392554999999999765e+00 0.000000000000000000e+00 6.092000000000000288e-06 1.845999999999999986e-06 1.963484700000000061e+01
4.535522000000000276e+00 0.000000000000000000e+00 0.000000000000000000e+00 1.949999999999999965e-06 4.308081999999999745e+00 0.000000000000000000e+00 5.514000000000000062e-06 1.670999999999999968e-06 1.743033099999999891e+01
4.713385999999999854e+00 0.000000000000000000e+00 0.000000000000000000e+00 1.949999999999999965e-06 4.477026999999999646e+00 0.000000000000000000e+00 4.213000000000000151e-06 1.277000000000000013e-06 1.383936399999999978e+01
4.713385999999999854e+00 0.000000000000000000e+00 0.000000000000000000e+00 1.949999999999999965e-06 4.477026999999999646e+00 0.000000000000000000e+00 5.431000000000000179e-06 1.645999999999999995e-06 1.783936399999999978e+01
4.357657999999999809e+00 0.000000000000000000e+00 0.000000000000000000e+00 1.949999999999999965e-06 4.139137999999999984e+00 0.000000000000000000e+00 5.275000000000000317e-06 1.599000000000000064e-06 1.602129899999999907e+01
4.446589999999999598e+00 0.000000000000000000e+00 0.000000000000000000e+00 1.949999999999999965e-06 4.223609999999999864e+00 0.000000000000000000e+00 4.590000000000000099e-06 1.390999999999999896e-06 1.422581500000000077e+01
4.713385999999999854e+00 0.000000000000000000e+00 0.000000000000000000e+00 1.949999999999999965e-06 4.477026999999999646e+00 0.000000000000000000e+00 4.213000000000000151e-06 1.277000000000000013e-06 1.383936399999999978e+01
4.713385999999999854e+00 0.000000000000000000e+00 0.000000000000000000e+00 1.949999999999999965e-06 4.477026999999999646e+00 0.000000000000000000e+00 4.213000000000000151e-06 1.277000000000000013e-06 1.383936399999999978e+01
4.713385999999999854e+00 0.000000000000000000e+00 0.000000000000000000e+00 1.949999999999999965e-06 4.477026999999999646e+00 0.000000000000000000e+00 4.213000000000000151e-06 1.277000000000000013e-06 1.383936399999999978e+01
4.713385999999999854e+00 0.000000000000000000e+00 0.000000000000000000e+00 1.949999999999999965e-06 4.477026999999999646e+00 0.000000000000000000e+00 4.821999999999999742e-06 1.461000000000000073e-06 1.583936399999999978e+01
4.713385999999999854e+00 0.000000000000000000e+00 0.000000000000000000e+00 1.949999999999999965e-06 4.477026999999999646e+00 0.000000000000000000e+00 4.821999999999999742e-06 1.461000000000000073e-06 1.583936399999999978e+01
4.357657999999999809e+00 0.000000000000000000e+00 0.000000000000000000e+00 1.949999999999999965e-06 4.139137999999999984e+00 0.000000000000000000e+00 4.945999999999999740e-06 1.498999999999999963e-06 1.502129900000000085e+01
4.624454000000000065e+00 0.000000000000000000e+00 0.000000000000000000e+00 1.949999999999999965e-06 4.392554999999999765e+00 0.000000000000000000e+00 5.781999999999999868e-06 1.751999999999999912e-06 1.863484700000000061e+01
4.357657999999999809e+00 0.000000000000000000e+00 0.000000000000000000e+00 1.949999999999999965e-06 4.139137999999999984e+00 0.000000000000000000e+00 5.604999999999999699e-06 1.698000000000000090e-06 1.702129899999999907e+01
4.713385999999999854e+00 0.000000000000000000e+00 0.000000000000000000e+00 1.949999999999999965e-06 4.477026999999999646e+00 0.000000000000000000e+00 5.125999999999999711e-06 1.554000000000000072e-06 1.683936399999999978e+01
4.624454000000000065e+00 0.000000000000000000e+00 0.000000000000000000e+00 1.949999999999999965e-06 4.392554999999999765e+00 0.000000000000000000e+00 4.850999999999999803e-06 1.469999999999999902e-06 1.563484700000000061e+01
4.713385999999999854e+00 0.000000000000000000e+00 0.000000000000000000e+00 1.949999999999999965e-06 4.477026999999999646e+00 0.000000000000000000e+00 5.431000000000000179e-06 1.645999999999999995e-06 1.783936399999999978e+01
4.624454000000000065e+00 0.000000000000000000e+00 0.000000000000000000e+00 1.949999999999999965e-06 4.392554999999999765e+00 0.000000000000000000e+00 5.781999999999999868e-06 1.751999999999999912e-06 1.863484700000000061e+01
4.357657999999999809e+00 0.000000000000000000e+00 0.000000000000000000e+00 1.949999999999999965e-06 4.139137999999999984e+00 0.000000000000000000e+00 6.263000000000000006e-06 1.898000000000000081e-06 1.902129899999999907e+01
4.446589999999999598e+00 0.000000000000000000e+00 0.000000000000000000e+00 1.949999999999999965e-06 4.223609999999999864e+00 0.000000000000000000e+00 5.236000000000000352e-06 1.587000000000000010e-06 1.622581500000000077e+01
4.713385999999999854e+00 0.000000000000000000e+00 0.000000000000000000e+00 1.949999999999999965e-06 4.477026999999999646e+00 0.000000000000000000e+00 5.735000000000000148e-06 1.737999999999999919e-06 1.883936399999999978e+01
4.713385999999999854e+00 0.000000000000000000e+00 0.000000000000000000e+00 1.949999999999999965e-06 4.477026999999999646e+00 0.000000000000000000e+00 4.213000000000000151e-06 1.277000000000000013e-06 1.383936399999999978e+01
4.357657999999999809e+00 0.000000000000000000e+00 0.000000000000000000e+00 1.949999999999999965e-06 4.139137999999999984e+00 0.000000000000000000e+00 5.275000000000000317e-06 1.599000000000000064e-06 1.602129899999999907e+01
4.446589999999999598e+00 0.000000000000000000e+00 0.000000000000000000e+00 1.949999999999999965e-06 4.223609999999999864e+00 0.000000000000000000e+00 5.236000000000000352e-06 1.587000000000000010e-06 1.622581500000000077e+01
4.446589999999999598e+00 0.000000000000000000e+00 0.000000000000000000e+00 1.949999999999999965e-06 4.223609999999999864e+00 0.000000000000000000e+00 5.236000000000000352e-06 1.587000000000000010e-06 1.622581500000000077e+01
4.713385999999999854e+00 0.000000000000000000e+00 0.000000000000000000e+00 1.949999999999999965e-06 4.477026999999999646e+00 0.000000000000000000e+00 4.364999999999999712e-06 1.323000000000000081e-06 1.433936399999999978e+01
4.713385999999999854e+00 0.000000000000000000e+00 0.000000000000000000e+00 1.949999999999999965e-06 4.477026999999999646e+00 0.000000000000000000e+00 4.821999999999999742e-06 1.461000000000000073e-06 1.583936399999999978e+01
4.357657999999999809e+00 0.000000000000000000e+00 0.000000000000000000e+00 1.949999999999999965e-06 4.139137999999999984e+00 0.000000000000000000e+00 5.604999999999999699e-06 1.698000000000000090e-06 1.702129899999999907e+01
4.713385999999999854e+00 0.000000000000000000e+00 0.000000000000000000e+00 1.949999999999999965e-06 4.477026999999999646e+00 0.000000000000000000e+00 4.517000000000000121e-06 1.368999999999999937e-06 1.483936399999999978e+01
4.446589999999999598e+00 0.000000000000000000e+00 0.000000000000000000e+00 1.949999999999999965e-06 4.223609999999999864e+00 0.000000000000000000e+00 5.236000000000000352e-06 1.587000000000000010e-06 1.622581500000000077e+01
4.713385999999999854e+00 0.000000000000000000e+00 0.000000000000000000e+00 1.949999999999999965e-06 4.477026999999999646e+00 0.000000000000000000e+00 4.213000000000000151e-06 1.277000000000000013e-06 1.383936399999999978e+01
4.357657999999999809e+00 0.000000000000000000e+00 0.000000000000000000e+00 1.949999999999999965e-06 4.139137999999999984e+00 0.000000000000000000e+00 5.275000000000000317e-06 1.599000000000000064e-06 1.602129899999999907e+01
4.446589999999999598e+00 0.000000000000000000e+00 0.000000000000000000e+00 1.949999999999999965e-06 4.223609999999999864e+00 0.000000000000000000e+00 3.621999999999999796e-06 1.097999999999999906e-06 1.122581500000000077e+01
4.713385999999999854e+00 0.000000000000000000e+00 0.000000000000000000e+00 1.949999999999999965e-06 4.477026999999999646e+00 0.000000000000000000e+00 5.431000000000000179e-06 1.645999999999999995e-06 1.783936399999999978e+01
4.713385999999999854e+00 0.000000000000000000e+00 0.000000000000000000e+00 1.949999999999999965e-06 4.477026999999999646e+00 0.000000000000000000e+00 4.213000000000000151e-06 1.277000000000000013e-06 1.383936399999999978e+01
4.713385999999999854e+00 0.000000000000000000e+00 0.000000000000000000e+00 1.949999999999999965e-06 4.477026999999999646e+00 0.000000000000000000e+00 4.364999999999999712e-06 1.323000000000000081e-06 1.433936399999999978e+01
4.713385999999999854e+00 0.000000000000000000e+00 0.000000000000000000e+00 1.949999999999999965e-06 4.477026999999999646e+00 0.000000000000000000e+00 4.364999999999999712e-06 1.323000000000000081e-06 1.433936399999999978e+01
4.446589999999999598e+00 0.000000000000000000e+00 0.000000000000000000e+00 1.949999999999999965e-06 4.223609999999999864e+00 0.000000000000000000e+00 5.236000000000000352e-06 1.587000000000000010e-06 1.622581500000000077e+01
4.713385999999999854e+00 0.000000000000000000e+00 0.000000000000000000e+00 1.949999999999999965e-06 4.477026999999999646e+00 0.000000000000000000e+00 5.431000000000000179e-06 1.645999999999999995e-06 1.783936399999999978e+01
4.713385999999999854e+00 0.000000000000000000e+00 0.000000000000000000e+00 1.949999999999999965e-06 4.477026999999999646e+00 0.000000000000000000e+00 4.213000000000000151e-06 1.277000000000000013e-06 1.383936399999999978e+01
4.713385999999999854e+00 0.000000000000000000e+00 0.000000000000000000e+00 1.949999999999999965e-06 4.477026999999999646e+00 0.000000000000000000e+00 4.821999999999999742e-06 1.461000000000000073e-06 1.583936399999999978e+01
4.624454000000000065e+00 0.000000000000000000e+00 0.000000000000000000e+00 1.949999999999999965e-06 4.392554999999999765e+00 0.000000000000000000e+00 4.850999999999999803e-06 1.469999999999999902e-06 1.563484700000000061e+01
4.268727000000000160e+00 0.000000000000000000e+00 0.000000000000000000e+00 1.949999999999999965e-06 4.054666000000000103e+00 0.000000000000000000e+00 3.468000000000000084e-06 1.050999999999999975e-06 1.031678199999999990e+01
4.624454000000000065e+00 0.000000000000000000e+00 0.000000000000000000e+00 1.949999999999999965e-06 4.392554999999999765e+00 0.000000000000000000e+00 4.386000000000000020e-06 1.328999999999999896e-06 1.413484700000000061e+01
4.268727000000000160e+00 0.000000000000000000e+00 0.000000000000000000e+00 1.949999999999999965e-06 4.054666000000000103e+00 0.000000000000000000e+00 5.652999999999999917e-06 1.712999999999999947e-06 1.681678199999999990e+01
4.357657999999999809e+00 0.000000000000000000e+00 0.000000000000000000e+00 1.949999999999999965e-06 4.139137999999999984e+00 0.000000000000000000e+00 5.275000000000000317e-06 1.599000000000000064e-06 1.602129899999999907e+01
4.357657999999999809e+00 0.000000000000000000e+00 0.000000000000000000e+00 1.949999999999999965e-06 4.139137999999999984e+00 0.000000000000000000e+00 5.934000000000000276e-06 1.797999999999999980e-06 1.802129899999999907e+01
4.624454000000000065e+00 0.000000000000000000e+00 0.000000000000000000e+00 1.949999999999999965e-06 4.392554999999999765e+00 0.000000000000000000e+00 6.092000000000000288e-06 1.845999999999999986e-06 1.963484700000000061e+01
4.624454000000000065e+00 0.000000000000000000e+00 0.000000000000000000e+00 1.949999999999999965e-06 4.392554999999999765e+00 0.000000000000000000e+00 4.541000000000000230e-06 1.376000000000000039e-06 1.463484700000000061e+01
4.624454000000000065e+00 0.000000000000000000e+00 0.000000000000000000e+00 1.949999999999999965e-06 4.392554999999999765e+00 0.000000000000000000e+00 4.850999999999999803e-06 1.469999999999999902e-06 1.563484700000000061e+01
4.535522000000000276e+00 0.000000000000000000e+00 0.000000000000000000e+00 1.949999999999999965e-06 4.308081999999999745e+00 0.000000000000000000e+00 4.565000000000000339e-06 1.382999999999999930e-06 1.443033100000000069e+01
4.713385999999999854e+00 0.000000000000000000e+00 0.000000000000000000e+00 1.949999999999999965e-06 4.477026999999999646e+00 0.000000000000000000e+00 5.431000000000000179e-06 1.645999999999999995e-06 1.783936399999999978e+01
4.535522000000000276e+00 0.000000000000000000e+00 0.000000000000000000e+00 1.949999999999999965e-06 4.308081999999999745e+00 0.000000000000000000e+00 4.407000000000000327e-06 1.335999999999999999e-06 1.393033100000000069e+01
4.446589999999999598e+00 0.000000000000000000e+00 0.000000000000000000e+00 1.949999999999999965e-06 4.223609999999999864e+00 0.000000000000000000e+00 4.913000000000000226e-06 1.489000000000000059e-06 1.522581500000000077e+01
4.268727000000000160e+00 0.000000000000000000e+00 0.000000000000000000e+00 1.949999999999999965e-06 4.054666000000000103e+00 0.000000000000000000e+00 5.652999999999999917e-06 1.712999999999999947e-06 1.681678199999999990e+01
4.446589999999999598e+00 0.000000000000000000e+00 0.000000000000000000e+00 1.949999999999999965e-06 4.223609999999999864e+00 0.000000000000000000e+00 6.204000000000000232e-06 1.880000000000000000e-06 1.922581500000000077e+01
4.624454000000000065e+00 0.000000000000000000e+00 0.000000000000000000e+00 1.949999999999999965e-06 4.392554999999999765e+00 0.000000000000000000e+00 4.850999999999999803e-06 1.469999999999999902e-06 1.563484700000000061e+01
4.713385999999999854e+00 0.000000000000000000e+00 0.000000000000000000e+00 1.949999999999999965e-06 4.477026999999999646e+00 0.000000000000000000e+00 3.604000000000000138e-06 1.092000000000000090e-06 1.183936399999999978e+01
4.713385999999999854e+00 0.000000000000000000e+00 0.000000000000000000e+00 1.949999999999999965e-06 4.477026999999999646e+00 0.000000000000000000e+00 4.364999999999999712e-06 1.323000000000000081e-06 1.433936399999999978e+01
4.624454000000000065e+00 0.000000000000000000e+00 0.000000000000000000e+00 1.949999999999999965e-06 4.392554999999999765e+00 0.000000000000000000e+00 4.541000000000000230e-06 1.376000000000000039e-06 1.463484700000000061e+01
4.535522000000000276e+00 0.000000000000000000e+00 0.000000000000000000e+00 1.949999999999999965e-06 4.308081999999999745e+00 0.000000000000000000e+00 5.514000000000000062e-06 1.670999999999999968e-06 1.743033099999999891e+01
4.535522000000000276e+00 0.000000000000000000e+00 0.000000000000000000e+00 1.949999999999999965e-06 4.308081999999999745e+00 0.000000000000000000e+00 6.146999999999999761e-06 1.862999999999999993e-06 1.943033099999999891e+01
4.357657999999999809e+00 0.000000000000000000e+00 0.000000000000000000e+00 1.949999999999999965e-06 4.139137999999999984e+00 0.000000000000000000e+00 5.604999999999999699e-06 1.698000000000000090e-06 1.702129899999999907e+01
4.713385999999999854e+00 0.000000000000000000e+00 0.000000000000000000e+00 1.949999999999999965e-06 4.477026999999999646e+00 0.000000000000000000e+00 5.431000000000000179e-06 1.645999999999999995e-06 1.783936399999999978e+01
4.713385999999999854e+00 0.000000000000000000e+00 0.000000000000000000e+00 1.949999999999999965e-06 4.477026999999999646e+00 0.000000000000000000e+00 5.431000000000000179e-06 1.645999999999999995e-06 1.783936399999999978e+01
4.713385999999999854e+00 0.000000000000000000e+00 0.000000000000000000e+00 1.949999999999999965e-06 4.477026999999999646e+00 0.000000000000000000e+00 4.213000000000000151e-06 1.277000000000000013e-06 1.383936399999999978e+01
4.624454000000000065e+00 0.000000000000000000e+00 0.000000000000000000e+00 1.949999999999999965e-06 4.392554999999999765e+00 0.000000000000000000e+00 6.092000000000000288e-06 1.845999999999999986e-06 1.963484700000000061e+01
4.713385999999999854e+00 0.000000000000000000e+00 0.000000000000000000e+00 1.949999999999999965e-06 4.477026999999999646e+00 0.000000000000000000e+00 4.821999999999999742e-06 1.461000000000000073e-06 1.583936399999999978e+01
4.535522000000000276e+00 0.000000000000000000e+00 0.000000000000000000e+00 1.949999999999999965e-06 4.308081999999999745e+00 0.000000000000000000e+00 4.565000000000000339e-06 1.382999999999999930e-06 1.443033100000000069e+01
4.535522000000000276e+00 0.000000000000000000e+00 0.000000000000000000e+00 1.949999999999999965e-06 4.308081999999999745e+00 0.000000000000000000e+00 4.407000000000000327e-06 1.335999999999999999e-06 1.393033100000000069e+01
4.624454000000000065e+00 0.000000000000000000e+00 0.000000000000000000e+00 1.949999999999999965e-06 4.392554999999999765e+00 0.000000000000000000e+00 4.850999999999999803e-06 1.469999999999999902e-06 1.563484700000000061e+01
4.713385999999999854e+00 0.000000000000000000e+00 0.000000000000000000e+00 1.949999999999999965e-06 4.477026999999999646e+00 0.000000000000000000e+00 4.821999999999999742e-06 1.461000000000000073e-06 1.583936399999999978e+01
4.713385999999999854e+00 0.000000000000000000e+00 0.000000000000000000e+00 1.949999999999999965e-06 4.477026999999999646e+00 0.000000000000000000e+00 4.213000000000000151e-06 1.277000000000000013e-06 1.383936399999999978e+01
4.446589999999999598e+00 0.000000000000000000e+00 0.000000000000000000e+00 1.949999999999999965e-06 4.223609999999999864e+00 0.000000000000000000e+00 4.913000000000000226e-06 1.489000000000000059e-06 1.522581500000000077e+01
4.624454000000000065e+00 0.000000000000000000e+00 0.000000000000000000e+00 1.949999999999999965e-06 4.392554999999999765e+00 0.000000000000000000e+00 5.161000000000000223e-06 1.563999999999999976e-06 1.663484700000000061e+01
4.713385999999999854e+00 0.000000000000000000e+00 0.000000000000000000e+00 1.949999999999999965e-06 4.477026999999999646e+00 0.000000000000000000e+00 4.821999999999999742e-06 1.461000000000000073e-06 1.583936399999999978e+01
4.713385999999999854e+00 0.000000000000000000e+00 0.000000000000000000e+00 1.949999999999999965e-06 4.477026999999999646e+00 0.000000000000000000e+00 5.431000000000000179e-06 1.645999999999999995e-06 1.783936399999999978e+01
4.446589999999999598e+00 0.000000000000000000e+00 0.000000000000000000e+00 1.949999999999999965e-06 4.223609999999999864e+00 0.000000000000000000e+00 4.913000000000000226e-06 1.489000000000000059e-06 1.522581500000000077e+01
4.624454000000000065e+00 0.000000000000000000e+00 0.000000000000000000e+00 1.949999999999999965e-06 4.392554999999999765e+00 0.000000000000000000e+00 4.850999999999999803e-06 1.469999999999999902e-06 1.563484700000000061e+01
4.535522000000000276e+00 0.000000000000000000e+00 0.000000000000000000e+00 1.949999999999999965e-06 4.308081999999999745e+00 0.000000000000000000e+00 5.830999999999999737e-06 1.766999999999999980e-06 1.843033099999999891e+01
4.713385999999999854e+00 0.000000000000000000e+00 0.000000000000000000e+00 1.949999999999999965e-06 4.477026999999999646e+00 0.000000000000000000e+00 5.125999999999999711e-06 1.554000000000000072e-06 1.683936399999999978e+01
4.446589999999999598e+00 0.000000000000000000e+00 0.000000000000000000e+00 1.949999999999999965e-06 4.223609999999999864e+00 0.000000000000000000e+00 4.913000000000000226e-06 1.489000000000000059e-06 1.522581500000000077e+01
4.713385999999999854e+00 0.000000000000000000e+00 0.000000000000000000e+00 1.949999999999999965e-06 4.477026999999999646e+00 0.000000000000000000e+00 4.060999999999999743e-06 1.230999999999999945e-06 1.333936399999999978e+01
