5.524701504000000263e+00 0.000000000000000000e+00 0.000000000000000000e+00 2.770424304000000060e+00 4.687981782999999680e+00 0.000000000000000000e+00 -1.989788050000000086e-01 2.673544239999999794e-01 9.076786566999999195e+00
5.730309003000000345e+00 0.000000000000000000e+00 0.000000000000000000e+00 3.000650081999999941e+00 4.962333177999999734e+00 0.000000000000000000e+00 -1.793215579999999920e-01 1.511930089999999893e-01 9.181872905000000529e+00
5.709062840999999722e+00 0.000000000000000000e+00 0.000000000000000000e+00 2.862874389999999991e+00 4.844421472999999700e+00 0.000000000000000000e+00 -2.056188019999999894e-01 2.762761400000000034e-01 9.379682299000000611e+00
5.350981881000000051e+00 0.000000000000000000e+00 0.000000000000000000e+00 2.637065415999999995e+00 4.724879904999999880e+00 0.000000000000000000e+00 1.680105399999999929e-02 5.162666199999999678e-02 8.956219791000000541e+00
