-5.733168000000000042e+00 1.450544999999999973e+00 7.154395000000000060e+00 -4.966726999999999670e+00 -2.918817999999999913e+00 -2.333384999999999820e+00 4.656495999999999746e+00 2.937556999999999974e+00 2.400258000000000003e+00 -1.550749999999999906e-01 1.121003999999999889e+00 -4.235240000000000116e-01 -1.007435999999999998e+00 -3.159500000000000086e-01 3.967330000000000023e-01 1.554049000000000014e+00 1.935029000000000110e+00 1.881440000000000057e-01 5.426239999999999952e-01 1.123310000000000003e-01 -4.722900000000000015e-02 -7.044690000000000119e-01 -1.077629999999999977e-01 -5.374870000000000481e-01 9.012289999999999468e-01 -3.431819999999999871e-01 -1.750823000000000018e+00 5.114630000000000010e-01 1.777130000000000098e-01 9.074670000000000236e-01 -8.184999999999999568e-03 -4.926659999999999928e-01 1.350198000000000009e+00 1.400195999999999996e+00 8.726580000000000448e-01 -2.955260000000000109e-01 3.556070000000000064e-01 5.811100000000000293e-02 -9.326010000000000133e-01 1.276725000000000110e+00 1.093806999999999974e+00 1.507199999999999929e-01 5.825960000000000027e-01 -1.447754999999999903e+00 9.669330000000000425e-01 4.247139999999999804e-01 7.924849999999999950e-01 -1.489279000000000019e+00 -1.297719999999999985e-01 3.090169999999999861e-01 -1.402279000000000053e+00 -1.224047000000000107e+00 -6.580810000000000271e-01 -6.892740000000000533e-01 -1.867979999999999918e-01 1.922712999999999894e+00 1.410654999999999992e+00 -1.600303999999999949e+00 -4.106000000000000275e-03 -9.072109999999999896e-01 1.168995999999999924e+00 -5.277739999999999654e-01 -2.505818000000000101e+00 -1.167588999999999988e+00 -7.303399999999999892e-01 4.606500000000000178e-02 1.260212000000000110e+00 5.748680000000000456e-01 1.090541999999999900e+00 -1.946130000000000082e-01 -3.531079999999999774e-01 2.400960000000000039e-01 -5.688239999999999963e-01 -2.802839999999999776e-01 9.954389999999999628e-01 1.408225000000000060e+00 6.274619999999999642e-01 1.003257999999999983e+00 -1.672379000000000060e+00 5.106530000000000236e-01 -1.629130000000000023e-01 -4.065440000000000165e-01 -7.874320000000000208e-01 7.307879999999999932e-01 5.096709999999999852e+00 -4.450134000000000256e+00 -4.051737000000000144e+00 -1.736199000000000048e+00 9.514320000000000555e-01 -4.268850000000000144e-01 -9.060660000000000380e-01 -2.316880000000000051e-01 -1.064489000000000019e+00 1.228353000000000028e+00 -1.798305000000000042e+00 -1.122800000000000013e-02
-5.773850000000000371e-01 4.313400000000000012e-01 -1.097100000000000020e-01 -7.887971000000000288e+00 3.254973000000000116e+00 1.563455000000000039e+00 -4.858270000000000088e-01 2.889140000000000041e-01 4.124760000000000093e-01 -1.261369999999999991e-01 -1.142408000000000090e+00 7.914710000000000356e-01 1.025311000000000083e+00 1.707616000000000023e+00 -7.582410000000000538e-01 1.508019999999999916e-01 1.675608999999999904e+00 -4.676629999999999954e-01 1.189429999999999932e-01 1.226389999999999980e-01 1.455897999999999914e+00 -2.539161000000000001e+00 1.353436000000000083e+00 1.211225999999999914e+00 2.273330000000000073e-01 6.050720000000000542e-01 5.613740000000000396e-01 7.448620000000000241e-01 -2.720300000000000148e-02 -7.108189999999999786e-01 7.008189999999999698e-01 -1.272149999999999948e-01 9.997009999999999508e-01 -7.241480000000000139e-01 2.133342999999999989e+00 -5.884960000000000191e-01 3.611190000000000233e-01 -3.176550000000000207e-01 -1.177607000000000070e+00 3.254380000000000051e-01 1.437972000000000028e+00 1.523743000000000070e+00 3.745400000000000118e-02 -3.770020000000000038e-01 2.080930000000000002e-01 -1.618114999999999970e+00 6.861299999999999344e-02 1.265567000000000109e+00 -1.578559999999999963e-01 8.527700000000000558e-02 -4.845530000000000115e-01 -8.653889999999999638e-01 1.137434000000000056e+00 -1.447306999999999899e+00 -3.219500000000000139e-02 -1.785425999999999958e+00 8.470500000000000251e-02 2.146939000000000153e+00 -9.593270000000000408e-01 -5.068700000000000289e-02 1.026661999999999964e+00 -3.138699999999999823e-02 -3.495980000000000198e-01 -6.843970000000000331e-01 -2.593688000000000216e+00 8.521969999999999823e-01 -1.102565999999999935e+00 -1.252939999999999887e-01 9.765460000000000251e-01 2.892810000000000104e-01 -1.288772000000000029e+00 -9.309699999999999642e-01 1.610945000000000071e+00 -2.430464999999999876e+00 -3.357829999999999981e-01 1.082281999999999966e+00 -1.495599999999999985e-01 -8.073700000000000321e-01 -7.136199999999999488e-02 1.104953000000000074e+00 1.462459999999999871e-01 -3.987049999999999761e-01 4.058809999999999918e-01 -1.668139999999999901e-01 1.113004000000000104e+00 -1.467697999999999947e+00 -1.636004999999999932e+00 7.464953000000000394e+00 -1.423969000000000040e+00 -1.672616000000000103e+00 -7.211549999999999905e-01 -1.246323000000000070e+00 -4.610389999999999766e-01 -4.337790000000000257e-01 -3.196800000000000197e-01 1.025790000000000035e-01
1.399160000000000126e-01 9.413169999999999593e-01 -8.115609999999999769e-01 3.525030000000000108e-01 1.376722000000000001e+00 1.067479999999999957e-01 8.859770000000000145e-01 2.262879999999999892e-01 7.738829999999999876e-01 1.141400000000000053e-02 -3.501279999999999948e-01 -1.571669999999999900e+00 -1.427060999999999913e+00 -1.976960000000000051e+00 -9.385210000000000496e-01 -8.279549999999999965e-01 -1.055539000000000005e+00 4.920800000000000174e-01 2.072799999999999990e-02 1.761679999999999913e-01 -1.295999999999999930e-02 -5.251200000000000312e-02 -3.441600000000000215e-01 -8.963989999999999458e-01 -5.563879999999999937e-01 -4.320089999999999764e-01 9.939339999999999842e-01 -1.030359999999999943e+00 5.251158000000000214e+00 4.458834000000000408e+00 1.206250000000000044e+00 1.845193000000000083e+00 -1.230760000000000048e-01 -9.607109999999999816e-01 3.533140000000000169e-01 3.748679999999999790e-01 1.808710000000000040e-01 -5.246900000000000175e-02 -4.245459999999999789e-01 1.601747000000000032e+00 -2.995019999999999905e-01 5.781199999999999672e-01 6.715280000000000138e-01 -1.784590000000000065e-01 -4.599889999999999812e-01 -1.600550000000000028e-01 7.264159999999999506e-01 1.289389999999999981e-01 -6.673259999999999748e-01 4.951650000000000218e-01 7.638350000000000417e-01 3.920219999999999816e-01 -7.793719999999999537e-01 -9.145200000000000551e-02 6.372269999999999879e-01 1.375480000000000036e-01 4.826280000000000014e-01 -2.663969999999999949e-01 6.284119999999999706e-01 5.426389999999999825e-01 1.361670000000000103e-01 -2.627410000000000023e-01 5.707280000000000131e-01 -2.085859999999999936e-01 2.158720000000000083e-01 -5.852910000000000057e-01 -1.283279999999999976e-01 -8.917730000000000379e-01 -4.119619999999999949e-01 -5.817630000000000301e-01 -1.989289999999999947e-01 -2.473110000000000031e-01 1.000124000000000013e+00 -5.739910000000000290e-01 -3.547509999999999830e-01 6.293530000000000513e-01 -1.761340000000000128e-01 -1.886589999999999934e-01 4.977840000000000042e-01 -5.044300000000000450e-01 1.407826000000000022e+00 -5.085589999999999833e-01 -6.287334000000000422e+00 -4.093988000000000405e+00 8.073700000000000321e-02 2.245540000000000036e-01 -4.617169999999999885e-01 -8.522499999999999520e-02 -1.728629999999999889e-01 -5.254799999999999471e-01 -7.864109999999999712e-01 7.243279999999999719e-01 -5.612799999999999734e-02 -1.967069999999999930e-01 1.214337000000000000e+00 5.803979999999999695e-01
1.189632999999999940e+00 9.813669999999999893e-01 -4.725110000000000143e-01 3.398120000000000029e-01 -1.288769999999999916e-01 -1.954960000000000031e-01 -3.227599999999999913e-02 6.197019000000000055e+00 -3.633671000000000095e+00 -1.252429999999999932e-01 -1.022285000000000110e+00 -1.173569000000000084e+00 2.467560000000000031e-01 -2.076599999999999974e-02 -3.495889999999999831e-01 1.012915000000000010e+00 -5.300799999999999956e-02 -4.343139999999999779e-01 -8.793700000000000128e-02 -5.335250000000000270e-01 5.931720000000000326e-01 2.680319999999999925e-01 5.279760000000000009e-01 1.547920000000000129e-01 1.075792000000000082e+00 -7.253009999999999735e-01 -3.155379999999999852e-01 -2.965240000000000098e-01 5.986190000000000122e-01 -1.272649999999999892e-01 -1.238537999999999917e+00 -1.503727000000000036e+00 -7.358700000000000241e-01 6.846889999999999921e-01 5.221729999999999983e-01 5.301099999999999701e-01 1.879463000000000106e+00 8.429830000000000378e-01 -2.101128000000000107e+00 -4.674590000000000134e-01 -6.658359999999999834e-01 -6.552700000000000191e-02 8.987410000000000121e-01 -1.169869999999999938e-01 -6.202959999999999585e-01 1.389390000000000069e-01 5.295100000000000362e-01 -1.987919999999999965e-01 -2.261399999999999869e-02 -2.837149999999999950e-01 -9.475569999999999826e-01 -1.720475999999999894e+00 2.651514000000000149e+00 -2.144744999999999902e+00 -3.505329999999999835e-01 1.186477999999999922e+00 6.359890000000000265e-01 -1.695866000000000096e+00 -1.133906999999999998e+00 8.539099999999999469e-01 -4.644559999999999800e-01 -1.456544999999999979e+00 -4.572890000000000010e-01 3.560499999999999776e-01 6.892740000000000533e-01 -1.393591999999999942e+00 1.002880000000000021e-01 1.963989999999999903e-01 1.034226000000000090e+00 -1.290138000000000007e+00 3.618339999999999890e-01 -1.722909999999999997e-01 -5.405739999999999990e-01 -1.607309000000000099e+00 1.409303999999999890e+00 -2.768699999999999981e-02 -3.223599999999999799e-01 1.201710999999999974e+00 -4.439250000000000140e-01 5.144349999999999756e-01 9.036140000000000283e-01 -1.243338000000000054e+00 -6.356662000000000035e+00 5.290756000000000014e+00 -5.344389999999999974e-01 -2.499629999999999908e-01 4.045869999999999744e-01 1.107245000000000035e+00 4.837199999999999833e-02 1.595963000000000021e+00 -1.935750999999999999e+00 -1.132582999999999895e+00 1.332994999999999930e+00 3.219419999999999948e+00 1.465400999999999954e+00 -4.020889999999999742e-01
1.863900000000000001e-01 7.205799999999999983e-01 -5.557590000000000030e-01 2.644070000000000031e-01 6.908450000000000424e-01 -3.405810000000000226e-01 -5.350759999999999961e-01 -6.949300000000000477e-01 7.288799999999999724e-01 -2.725604999999999833e+00 2.449148000000000103e+00 -3.986049999999999871e-01 7.646230000000000526e-01 1.110351000000000088e+00 4.649860000000000104e-01 -1.644438000000000066e+00 4.690559999999999619e+00 4.417320000000000135e+00 -1.336499999999999910e-01 7.574159999999999782e-01 -1.070409999999999973e-01 -4.144450000000000078e-01 1.493408999999999986e+00 2.756390000000000229e-01 -2.211556999999999995e+00 -6.647070000000000478e-01 -3.349650000000000127e-01 4.833199999999999996e-02 8.405890000000000306e-01 -1.462199999999999889e-01 4.921840000000000104e-01 2.857500000000000040e-01 1.831089999999999940e-01 -8.493540000000000534e-01 -2.370130000000000015e-01 -7.082380000000000342e-01 8.922029999999999683e-01 -7.768300000000000205e-01 4.889000000000000117e-03 -2.494079999999999908e-01 -6.058599999999999541e-01 1.881700000000000039e-01 9.581460000000000532e-01 -5.513149999999999995e-01 -8.484570000000000167e-01 2.530400000000000010e-02 8.700240000000000196e-01 8.047060000000000324e-01 1.094408000000000047e+00 1.910112999999999950e+00 9.320380000000000331e-01 -3.075879999999999725e-01 6.178999999999999770e-02 1.572020000000000084e-01 6.814200000000000257e-01 -3.459260000000000113e-01 -7.853719999999999590e-01 -5.718109999999999582e-01 -6.170800999999999981e+00 -4.056989999999999874e+00 9.230300000000000171e-01 -1.724965999999999999e+00 3.006389999999999896e-01 -4.626239999999999797e-01 1.482569999999999999e-01 -1.564665999999999890e+00 5.967329999999999579e-01 1.086619999999999947e-01 3.678230000000000111e-01 4.341610000000000191e-01 -4.066259999999999875e-01 -1.176419999999999966e-01 3.748800000000000049e-02 -1.061799999999999966e-01 4.635830000000000228e-01 2.417999999999999872e-01 -1.098351000000000077e+00 -4.490669999999999940e-01 -1.663459000000000021e+00 -1.162292000000000103e+00 8.594929999999999515e-01 -1.558039999999999980e-01 -3.356939999999999924e-01 -3.851120000000000099e-01 7.161739999999999773e-01 4.000889999999999724e-01 3.325210000000000110e-01 9.065579999999999750e-01 -4.028189999999999826e-01 2.437380000000000102e-01 2.012627000000000166e+00 -2.661630999999999858e+00 3.600610000000000199e-01 6.488310000000000466e-01 1.408357000000000081e+00 -2.860809999999999742e-01
-1.019889999999999963e-01 5.502368999999999843e+00 2.201665999999999901e+00 2.798399999999999846e-02 -1.123979000000000061e+00 2.902669999999999972e-01 -9.649800000000000044e-02 1.811369999999999925e-01 -3.373160000000000047e-01 7.283779999999999699e-01 2.534139999999999726e-01 7.267400000000000249e-02 -4.694000000000000256e-03 1.331600000000000006e-01 -1.703129999999999922e-01 -2.310429999999999984e-01 3.366009999999999835e-01 2.187969999999999915e-01 2.098699999999999871e-02 1.870508999999999977e+00 1.551204000000000027e+00 5.678029999999999466e-01 -3.807200000000000167e-02 -6.765899999999999692e-02 5.663900000000000184e-02 -2.314605999999999941e+00 -2.708463000000000065e+00 -1.515152000000000054e+00 1.079401000000000055e+00 2.193724000000000007e+00 -2.908959999999999879e-01 3.820160000000000222e-01 -1.625679999999999903e-01 4.521279999999999744e-01 -5.489929999999999533e-01 1.212049999999999933e-01 -1.313091999999999926e+00 -1.375530000000000086e-01 -2.505600000000000049e-01 -2.218390000000000084e-01 2.516260000000000163e-01 1.617140000000000022e+00 -4.850110000000000254e-01 2.377640000000000031e-01 -6.071250000000000258e-01 -1.806124000000000063e+00 -7.707100000000000062e-01 -1.135250000000000009e-01 2.599594999999999878e+00 -2.455710999999999977e+00 3.365099999999999758e-01 -2.340803000000000189e+00 2.864396000000000164e+00 1.811005999999999894e+00 1.166266000000000025e+00 2.574020000000000197e-01 -1.212188999999999961e+00 -8.194569999999999910e-01 -3.942919999999999758e-01 6.224600000000000272e-02 -7.430240000000000178e-01 -2.880800000000000027e-01 -5.713620000000000365e-01 3.751510000000000122e-01 -6.363000000000000600e-02 9.460599999999999565e-02 8.976720000000000255e-01 1.980312999999999990e+00 2.190244999999999997e+00 4.075690000000000146e-01 -5.753500000000000281e-01 -2.087883000000000155e+00 -1.095212999999999992e+00 -1.059353999999999907e+00 1.462309999999999999e-01 -1.026610000000000023e-01 4.530239999999999823e-01 -1.878299999999999970e-01 1.004231000000000096e+00 3.366149999999999975e-01 -2.575129999999999919e-01 8.255909999999999638e-01 1.162509999999999932e-01 -4.515959999999999974e-01 -6.360599999999999588e-02 -5.461369999999999614e+00 -1.929216999999999960e+00 1.304253000000000107e+00 -5.145600000000000174e-01 -1.023700000000000027e-01 7.532759999999999456e-01 -8.953899999999999360e-02 -1.149375000000000036e+00 4.358000000000000068e-02 -4.002020000000000022e-01 -5.406560000000000255e-01
1.127180000000000071e+00 1.394171999999999967e+00 7.470310000000000006e-01 -2.984935000000000116e+00 3.168559999999999821e+00 -7.758721999999999674e+00 9.554550000000000542e-01 1.764378999999999920e+00 1.202007000000000048e+00 8.816789999999999905e-01 4.955890000000000017e-01 2.287949999999999984e-01 4.194640000000000035e-01 -1.419199999999999975e-02 -1.251700000000000035e-01 5.707550000000000123e-01 3.389190000000000258e-01 -9.629090000000000149e-01 -9.720699999999999896e-01 -5.234199999999999964e-02 1.170599999999999974e-01 -1.541999999999999968e-02 -4.610299999999999815e-02 1.198735000000000106e+00 -1.299901999999999891e+00 9.584019999999999762e-01 -9.337969999999999882e-01 -2.533679999999999821e-01 -4.580560000000000187e-01 -1.126889999999999975e-01 1.592603999999999909e+00 -8.947310000000000541e-01 6.994280000000000497e-01 -5.071130000000000360e-01 -7.266709999999999559e-01 -1.792330000000000034e-01 2.817957999999999963e+00 -4.991181000000000090e+00 6.363865999999999801e+00 1.722290000000000099e+00 1.866673000000000027e+00 6.107789999999999608e-01 -1.905807000000000029e+00 9.290610000000000257e-01 1.675030000000000130e-01 -6.652600000000000180e-02 1.432420000000000082e-01 -3.566010000000000013e-01 -7.668289999999999829e-01 5.833359999999999657e-01 1.393629999999999924e+00 3.578080000000000149e-01 -1.080597000000000030e+00 -6.554499999999999771e-01 2.528869999999999729e-01 1.463049999999999906e-01 4.724849999999999883e-01 5.195800000000000418e-01 -2.153110000000000024e-01 -1.369110000000000049e-01 2.384000000000000008e-02 9.233970000000000233e-01 -8.252030000000000198e-01 1.385190000000000032e-01 -7.741689999999999960e-01 -9.123350000000000071e-01 1.130778000000000061e+00 -7.695849999999999635e-01 -3.089660000000000184e-01 -1.236167999999999934e+00 -1.136238000000000081e+00 -3.687469999999999914e-01 2.978000000000000178e-03 2.558869999999999756e-01 4.787589999999999901e-01 -6.752089999999999481e-01 -4.937610000000000054e-01 -1.103390000000000065e-01 7.419199999999999406e-02 -2.246279999999999943e-01 1.971849999999999992e-01 -2.137850000000000028e-01 2.953239999999999754e-01 -8.751700000000000035e-01 -6.650409999999999933e-01 -1.284409999999999996e-01 5.225370000000000292e-01 -4.217330000000000245e-01 -7.284779999999999589e-01 -1.416459999999999941e-01 -5.506550000000000056e-01 -4.463019999999999765e-01 8.818099999999999550e-02 -5.340899999999999814e-02 -8.246100000000000652e-02 2.759079999999999866e-01
-8.798909999999999787e-01 -1.688749000000000056e+00 -1.500893999999999950e+00 6.734050000000000313e-01 -6.025409999999999933e-01 3.362490000000000201e-01 5.571469999999999478e-01 2.569620000000000237e-01 -1.782360000000000055e-01 -1.689630000000000021e-01 8.580539999999999834e-01 -1.451199999999999990e-01 7.223599999999999466e-02 -1.045660000000000062e-01 2.426299999999999985e-02 -8.428550000000000209e-01 -1.227870000000000017e+00 -2.858189999999999897e-01 7.123340000000000227e-01 -1.009867999999999988e+00 5.538509999999999822e-01 -4.195999999999999730e-01 3.781479999999999841e-01 -1.598338000000000036e+00 1.633910000000000085e-01 1.052048000000000094e+00 1.960363999999999995e+00 1.417893999999999988e+00 2.040877000000000052e+00 1.210503000000000107e+00 -5.878593000000000401e+00 5.440856000000000137e+00 4.679878999999999678e+00 -1.851810000000000123e-01 4.183189999999999964e-01 -1.613842999999999916e+00 1.748556999999999917e+00 3.068600000000000147e-02 -1.850030000000000063e+00 -7.476700000000000013e-02 1.140200000000000068e-02 -6.601129999999999498e-01 7.051766999999999896e+00 -4.852821999999999747e+00 -4.639719999999999622e+00 -2.645582000000000100e+00 1.290645999999999960e+00 5.365020000000000344e-01 2.513800000000000062e-02 -2.254700000000000037e-01 7.241840000000000499e-01 -9.561589999999999812e-01 6.595550000000000024e-01 -2.795860000000000012e-01 -2.100609999999999977e-01 5.754209999999999603e-01 8.067309999999999759e-01 1.282429999999999959e+00 -7.399689999999999879e-01 2.672175000000000189e+00 -1.235178000000000109e+00 2.456399999999999903e-02 -6.179470000000000240e-01 -8.668800000000000117e-02 -2.633722999999999814e+00 2.769269999999999787e-01 -2.349785999999999930e+00 3.401432999999999929e+00 1.533360000000000001e-01 -9.838409999999999656e-01 -2.682599999999999915e-02 -9.949719999999999676e-01 -1.021819999999999951e-01 -3.068020000000000191e-01 3.068489999999999829e-01 2.970045999999999964e+00 -3.203119000000000050e+00 -9.271310000000000384e-01 -5.707349999999999923e-01 8.845070000000000432e-01 3.239100000000000312e-02 8.067520000000000246e-01 -1.189189000000000052e+00 -1.975810000000000066e-01 1.428369999999999918e-01 5.685620000000000118e-01 -2.677979999999999805e-01 -1.840930000000000066e-01 1.160741000000000023e+00 -1.235770999999999953e+00 2.595239999999999769e-01 -1.495438999999999963e+00 2.334633000000000180e+00 -1.093019999999999964e-01 2.541729999999999823e-01 3.840640000000000165e-01
5.143219999999999459e-01 -1.195106000000000002e+00 1.330840000000000078e-01 -7.864109999999999712e-01 6.078850000000000087e-01 -1.308395999999999892e+00 -1.087468000000000101e+00 -2.864613999999999994e+00 6.738570000000000393e-01 -6.324490000000000389e-01 3.138050000000000006e-01 -9.406060000000000532e-01 5.435259999999999536e-01 1.248810000000000059e-01 5.632209999999999717e-01 -2.582383999999999791e+00 6.678150000000000475e-01 1.741880000000000095e+00 2.201400000000000023e-01 4.435069999999999846e-01 -1.990283999999999942e+00 2.927400000000000002e-01 2.807509999999999728e-01 3.501879999999999993e-01 2.490229999999999944e-01 5.869790000000000285e-01 -6.879579999999999584e-01 -2.527620999999999896e+00 -1.206955000000000000e+00 -4.479609999999999981e-01 5.895604999999999762e+00 -4.417435000000000223e+00 -4.459227000000000274e+00 5.268709999999999782e-01 7.973440000000000527e-01 1.093388000000000027e+00 5.277539999999999454e-01 6.767809999999999659e-01 2.528320000000000012e-01 1.745972999999999997e+00 5.167350000000000554e-01 1.738299999999999915e-02 1.226420000000000066e+00 1.864319000000000059e+00 -3.120550000000000268e-01 1.898481000000000085e+00 7.018199999999999439e-02 -1.191643999999999926e+00 -6.990200000000000580e-02 2.467930000000000124e-01 1.203267000000000087e+00 1.080052999999999930e+00 -3.718899999999999983e-01 1.141394999999999937e+00 -3.251249999999999973e-01 -1.206321999999999894e+00 -6.099170000000000424e-01 2.266160000000000119e-01 2.744860000000000078e-01 -1.419437000000000060e+00 9.187199999999999533e-02 -9.638430000000000053e-01 -4.885160000000000058e-01 -4.341764000000000401e+00 5.523837999999999582e+00 6.052749000000000379e+00 -2.165588000000000068e+00 -1.300014000000000003e+00 1.566286999999999985e+00 7.109400000000000164e-01 7.434070000000000400e-01 9.812530000000000419e-01 1.585599999999999898e+00 -1.218229000000000006e+00 -3.749607999999999830e+00 -6.216960000000000264e-01 2.371179999999999954e-01 -8.610870000000000468e-01 1.696236000000000077e+00 7.469970000000000221e-01 2.434060000000000112e-01 -1.237160999999999955e+00 -1.654403000000000068e+00 8.918700000000000516e-01 -8.896389999999999576e-01 9.292300000000000004e-01 3.886080000000000090e-01 -7.025179999999999758e-01 -1.408369999999999900e+00 8.688489999999999824e-01 -1.898259999999999947e-01 -7.543300000000000005e-02 4.037400000000000017e-02 -8.726199999999999513e-01 2.229762000000000022e+00 2.628039999999999821e-01
1.600689999999999891e-01 -1.306970000000000076e-01 -1.022008000000000028e+00 1.902969999999999939e-01 -3.372200000000000197e-02 -1.103726999999999903e+00 6.353339999999999543e-01 -7.198100000000000331e-02 -1.178215999999999930e+00 4.425430000000000197e-01 -1.364600000000000014e-02 4.872199999999999864e-01 8.958279999999999577e-01 -1.402573000000000070e+00 -1.582994999999999930e+00 7.031952999999999676e+00 2.292873000000000161e+00 1.115396000000000054e+00 2.743639999999999968e-01 -4.394200000000000189e-02 -6.001900000000000290e-02 1.948899999999999938e-02 1.347469999999999946e+00 -1.918873000000000051e+00 8.173580000000000290e-01 -8.523110000000000408e-01 1.850769999999999915e-01 1.529449999999999976e-01 7.643389999999999906e-01 3.320230000000000126e-01 -1.101893000000000011e+00 4.876349999999999851e-01 1.423251000000000044e+00 -3.364090000000000136e-01 -4.294209999999999972e-01 7.451349999999999918e-01 -6.188356999999999886e+00 -2.377822999999999798e+00 -2.335354999999999848e+00 6.288199999999999346e-02 -1.788065999999999933e+00 5.132463999999999693e+00 -1.852489999999999970e-01 -1.510426999999999964e+00 -1.371893000000000029e+00 3.178799999999999681e-02 2.427739999999999898e-01 4.282699999999999840e-01 -7.661599999999999522e-01 -4.338509999999999867e-01 2.679360000000000075e-01 -1.271060000000000079e+00 -1.661600000000000021e-01 1.671966999999999981e+00 -1.958249999999999991e-01 6.187009999999999454e-01 2.049128000000000061e+00 6.847800000000000553e-01 -1.473140000000000005e-01 -3.771700000000000053e-02 -1.606630000000000003e-01 -2.654219999999999913e-01 -6.195000000000000506e-01 3.421879999999999922e-01 2.188479999999999870e-01 1.832559999999999967e+00 2.832979999999999943e-01 5.855200000000000404e-01 3.991450000000000276e-01 -6.322820000000000107e-01 -3.312450000000000117e-01 -1.195249999999999924e+00 6.545549999999999979e-01 1.964889999999999970e-01 -4.538499999999999757e-01 4.421789999999999887e-01 -8.405200000000000171e-02 7.017199999999999827e-02 -8.488000000000000753e-03 -1.196109999999999951e-01 2.468970000000000053e-01 -7.550229999999999997e-01 2.829111999999999849e+00 -3.302410000000000068e+00 -9.933599999999999375e-02 -3.890299999999999869e-01 3.136390000000000011e-01 2.736999999999999850e-03 1.561366999999999949e+00 -1.262818999999999914e+00 -6.458859999999999602e-01 -4.889069999999999805e-01 1.355361999999999956e+00 -7.779570000000000096e-01 -6.492799999999999960e-02 -6.110090000000000243e-01
1.464221999999999912e+00 -1.486137999999999959e+00 1.174047999999999981e+00 6.335399999999999920e-01 -1.267838999999999938e+00 -1.255722000000000005e+00 3.763750000000000151e-01 8.645089999999999719e-01 6.320620000000000127e-01 -1.691322999999999910e+00 -5.942479999999999984e-01 1.214158999999999988e+00 9.991240000000000121e-01 -2.729640999999999984e+00 6.351269999999999971e-01 1.797868000000000022e+00 1.230706999999999995e+00 5.192309999999999981e-01 -1.405089999999999950e-01 8.668700000000000017e-02 -9.043900000000000550e-02 3.609169999999999878e-01 2.039461999999999886e+00 -2.031426999999999872e+00 5.532200000000000312e-02 -1.114249000000000045e+00 -2.184000000000000108e-01 -2.851960000000000051e-01 -1.595337999999999923e+00 -8.414289999999999825e-01 -9.355800000000000227e-02 1.048680999999999974e+00 1.834949999999999914e-01 -3.935875999999999930e+00 8.808599999999999763e-02 1.619933000000000067e+00 -9.427410000000000512e-01 1.339997000000000105e+00 -1.179280000000000050e-01 -9.429729999999999501e-01 5.673489999999999922e-01 1.038486000000000020e+00 3.095339999999999758e-01 -7.524960000000000537e-01 -1.171340000000000020e-01 -1.090878999999999932e+00 6.092729999999999535e-01 9.438809999999999700e-01 5.656999999999999702e-03 1.011689999999999950e-01 -5.464930000000000065e-01 7.502450000000000507e-01 -8.938110000000000221e-01 6.934500000000000386e-02 1.507080000000000086e-01 -1.055366000000000026e+00 -7.611289999999999445e-01 1.311559999999999948e-01 -1.529679999999999929e-01 3.192600000000000299e-02 -1.070929999999999938e-01 7.225439999999999641e-01 -9.859040000000000026e-01 -1.387542000000000053e+00 -1.845674999999999955e+00 3.771039999999999948e-01 3.148606000000000016e+00 1.543714999999999948e+00 -2.172240000000000004e-01 -2.370450000000000057e-01 6.220017999999999603e+00 -4.794519999999999893e-01 1.292264999999999997e+00 -5.924585999999999686e+00 -1.393060000000000132e-01 1.665243999999999946e+00 -2.038394999999999957e+00 -5.509720000000000173e-01 -2.938600000000000101e-01 9.980919999999999792e-01 3.823480000000000212e-01 8.186989999999999545e-01 9.676430000000000309e-01 -8.973480000000000345e-01 -9.871199999999999974e-01 2.678185000000000038e+00 4.171019999999999728e-01 3.634620000000000073e-01 8.385620000000000296e-01 1.886009999999999909e-01 -5.061959999999999793e-01 -1.598524999999999974e+00 1.935399999999999898e-01 -1.681030999999999942e+00 1.104597000000000051e+00 -3.700820000000000221e-01
-1.189109999999999889e+00 -1.299547000000000008e+00 -7.877900000000000180e-02 1.116562999999999972e+00 5.386260000000000492e-01 9.231239999999999446e-01 -1.014113000000000042e+00 -4.901349999999999874e-01 5.957689999999999930e-01 -2.103999999999999967e-03 1.227120000000000016e-01 8.441290000000000182e-01 -8.005619999999999958e-01 6.327599999999999891e-01 -1.359385999999999983e+00 2.443814000000000153e+00 -1.101372999999999935e+00 1.154579999999999940e+00 -1.073782999999999932e+00 -4.871039999999999814e-01 -3.370130000000000070e-01 -3.418340000000000267e-01 2.598965000000000192e+00 2.593751000000000140e+00 -7.052310000000000523e-01 -1.089086999999999916e+00 -1.602192000000000061e+00 -9.547820000000000196e-01 -2.628174000000000010e+00 1.554172000000000109e+00 1.009144999999999959e+00 7.198689999999999811e-01 1.720450000000000035e-01 -5.579399999999999915e-01 -5.009099999999999664e-02 -3.636519999999999753e-01 8.914900000000000047e-01 1.892610000000000126e-01 3.002399999999999861e-02 2.311217000000000077e+00 1.030500000000000027e-01 1.477457999999999938e+00 -6.246999999999999949e-03 -2.563179999999999903e-01 5.682600000000000151e-02 -3.638330000000000175e-01 7.853569999999999718e-01 -1.062421000000000060e+00 3.108850000000000224e-01 1.771600000000000119e-01 8.022730000000000139e-01 -6.268551999999999680e+00 6.297819999999999530e-01 -3.538898000000000099e+00 5.973362999999999978e+00 -7.982519999999999616e-01 3.586065000000000058e+00 2.809280000000000110e-01 -7.177010000000000334e-01 -7.710669999999999469e-01 -1.019479000000000024e+00 2.969490000000000185e-01 3.128349999999999742e-01 3.090780000000000194e-01 -4.125360000000000138e-01 -6.462409999999999544e-01 1.130479999999999957e-01 -1.029339999999999977e-01 1.907600000000000129e-01 -1.581950000000000023e-01 -7.257350000000000190e-01 -7.770340000000000025e-01 2.306880000000000042e-01 6.581879999999999953e-01 4.757750000000000035e-01 1.192854999999999999e+00 2.788010000000000210e-01 -3.186660000000000048e-01 -9.612400000000000111e-02 5.048329999999999762e-01 2.508440000000000114e-01 -3.182690000000000241e-01 6.598380000000000356e-01 1.914200000000000068e-01 -1.688153999999999932e+00 2.171929999999999972e-01 6.214680000000000204e-01 9.840480000000000338e-01 -5.663610000000000033e-01 -1.404184000000000099e+00 4.278930000000000233e-01 -3.491839999999999944e-01 -2.750859999999999972e-01 -1.036702000000000012e+00 1.961192999999999964e+00 -3.298702000000000023e+00