2.990900000000000225e-01 9.016100000000000225e-01 1.325590000000000046e+01 3.923810000000000020e+00 1.263900000000000023e-01 1.045669999999999966e+01 1.016999999999999987e-01 2.098539999999999850e+00 1.801360000000000028e+01 3.933139999999999858e+00 1.178539999999999921e+00 2.225600000000000023e+00 1.894130000000000091e+00 2.433930000000000149e+00 5.341479999999999784e+00 2.146700000000000053e+00 1.568380000000000107e+00 1.462390000000000079e+01 1.974210000000000020e+00 2.360660000000000203e+00 1.222979999999999912e+01 3.781050000000000022e+00 6.285999999999999921e-02 7.198170000000000179e+00 1.348399999999999876e-01 5.148899999999999588e-01 1.563380000000000081e+01 2.082959999999999923e+00 1.670360000000000067e+00 7.710599999999999676e-01 1.831190000000000095e+00 1.078279999999999905e+00 8.224780000000000868e+00 2.208610000000000184e+00 7.331199999999999939e-01 1.678190000000000026e+01
5.394700000000000051e-01 1.219789999999999930e+00 4.099239999999999995e+00 3.140649999999999942e+00 7.424399999999999888e-01 8.292040000000000077e+00 2.723079999999999945e+00 1.630200000000000093e+00 1.237429999999999986e+01 7.595600000000000129e-01 4.376300000000000190e-01 1.187049999999999983e+01 2.598360000000000003e+00 1.731649999999999912e+00 6.280300000000000438e+00 7.494600000000000151e-01 1.705270000000000064e+00 9.575480000000000658e+00 2.621799999999999908e+00 2.506040000000000045e+00 3.581739999999999924e+00 8.141000000000000458e-01 5.369000000000000161e-02 1.850079999999999947e+00 3.900500000000000078e-01 6.339299999999999935e-01 6.356760000000000410e+00 2.986580000000000013e+00 3.469200000000000061e-01 1.018099999999999916e+01 1.214350000000000041e+00 1.788650000000000073e+00 1.730740000000000123e+01 3.410779999999999923e+00 4.999000000000000110e-01 1.700609999999999999e+01
1.865600000000000036e-01 2.294059999999999988e+00 6.463169999999999860e+00 1.758210000000000051e+00 1.894260000000000055e+00 2.424380000000000202e+00 2.350080000000000169e+00 2.306750000000000078e+00 1.065649999999999942e+01 5.432000000000000023e-02 1.471200000000000063e+00 8.865840000000000387e+00 1.760999999999999899e+00 4.049099999999999921e-01 7.456769999999999676e+00 2.268569999999999975e+00 1.419319999999999915e+00 4.939149999999999707e+00 2.927899999999999947e-01 2.342519999999999936e+00 1.417089999999999961e+01 3.696649999999999991e+00 6.469399999999999595e-01 3.474019999999999886e+00 2.282439999999999802e+00 1.347010000000000041e+00 1.314630000000000010e+01 1.812799999999999967e-01 3.663000000000000284e-02 1.173889999999999922e+01 3.632989999999999942e+00 2.028900000000000148e+00 7.285800000000000054e-01 1.795060000000000100e+00 9.892800000000000482e-01 7.116000000000000103e-02
1.755449999999999955e+00 6.835900000000000309e-01 1.402009999999999934e+01 2.846319999999999961e+00 1.764059999999999961e+00 1.069009999999999927e+01 1.183540000000000036e+00 2.375039999999999818e+00 1.795850000000000080e+01 2.683250000000000135e+00 4.007999999999999757e-02 8.181950000000000500e+00 9.650999999999999579e-01 1.493710000000000093e+00 5.967200000000000282e-01 3.129659999999999886e+00 1.049500000000000099e+00 1.877659999999999840e+01 3.746950000000000003e+00 2.174859999999999793e+00 1.451720000000000077e+01 3.128239999999999910e+00 6.336999999999999578e-02 1.345469999999999944e+00 3.210430000000000117e+00 4.661799999999999833e-01 1.253500000000000014e+01 2.019369999999999887e+00 2.346270000000000078e+00 5.477820000000000356e+00 2.951670000000000016e+00 1.172269999999999923e+00 1.651569999999999894e+01 7.429700000000000193e-01 1.098649999999999904e+00 7.141510000000000247e+00
1.283299999999999996e-01 6.754900000000000349e-01 8.968149999999999622e+00 4.253399999999999959e-01 1.535619999999999985e+00 4.915200000000000125e-01 1.204960000000000031e+00 8.879000000000000226e-01 1.640429999999999922e+01 4.184059999999999668e+00 1.474739999999999940e+00 6.509079999999999977e+00 2.018549999999999844e+00 1.971240000000000103e+00 8.311880000000000379e+00 2.546699999999999964e+00 2.666399999999999881e-01 3.426199999999999801e-01 2.574829999999999952e+00 1.580859999999999932e+00 1.286219999999999963e+01 2.404319999999999791e+00 2.176700000000000024e-01 1.061539999999999928e+01 4.017100000000000115e-01 1.691079999999999917e+00 1.131060000000000088e+01 4.639699999999999935e-01 3.395099999999999785e-01 3.950709999999999944e+00 2.216639999999999944e+00 4.783800000000000274e-01 6.073450000000000237e+00 2.534689999999999888e+00 1.665610000000000035e+00 3.676359999999999850e+00
3.990600000000000258e-01 1.214199999999999946e+00 7.840869999999999784e+00 2.467270000000000074e+00 6.404400000000000093e-01 1.366119999999999912e+01 1.367220000000000102e+00 3.164600000000000191e-01 1.953320000000000078e+01 3.287399999999999767e-01 1.254559999999999897e+00 1.276730000000000054e+01 3.452280000000000015e+00 1.096600000000000019e+00 1.450220000000000065e+00 4.922500000000000209e-01 1.260790000000000077e+00 1.042109999999999914e+01 3.572529999999999983e+00 2.781299999999999883e-01 2.102349999999999852e+01 2.484809999999999963e+00 2.367939999999999934e+00 1.142520000000000024e+01 2.369699999999999918e+00 2.113230000000000164e+00 7.033030000000000115e+00 1.535619999999999985e+00 2.321000000000000146e-02 5.813300000000000134e-01 2.338169999999999860e+00 1.794199999999999962e-01 9.267659999999999343e+00 3.503800000000000026e+00 1.528389999999999915e+00 1.875209999999999866e+01
2.764099999999999890e-01 2.064630000000000187e+00 7.675130000000000230e+00 3.199120000000000186e+00 1.177200000000000024e+00 4.425810000000000244e+00 2.163899999999999990e-01 2.123749999999999805e+00 2.466169999999999973e+00 4.040949999999999598e+00 1.690620000000000012e+00 1.212260000000000026e+01 4.059650000000000425e+00 1.429019999999999957e+00 5.425499999999999767e-01 2.261800000000000033e+00 1.073299999999999921e+00 2.157820000000000071e+00 1.701449999999999907e+00 1.990000000000000015e-03 2.004980000000000118e+01 1.560419999999999918e+00 9.031099999999999683e-01 1.034350000000000058e+01 2.356980000000000075e+00 8.926500000000000545e-01 7.064849999999999852e+00 2.033790000000000209e+00 2.007060000000000066e+00 1.241099999999999959e+01 7.203500000000000458e-01 3.090300000000000269e-01 5.436289999999999623e+00 3.910099999999999909e+00 2.282529999999999948e+00 1.020139999999999958e+01
1.092770000000000019e+00 1.745689999999999964e+00 1.814840000000000009e+00 1.062060000000000004e+00 2.570819999999999883e+00 8.139860000000000539e+00 5.124400000000000066e-01 4.507900000000000240e-01 1.373859999999999992e+01 2.554180000000000117e+00 2.210910000000000153e+00 1.485069999999999979e+01 6.671399999999999553e-01 1.813940000000000108e+00 4.388690000000000424e+00 2.945009999999999906e+00 8.103900000000000547e-01 9.446680000000000632e+00 2.857380000000000031e+00 4.348099999999999743e-01 3.242989999999999817e+00 1.488969999999999905e+00 2.167180000000000106e+00 1.668260000000000076e+01 3.495019999999999794e+00 1.524860000000000104e+00 6.711630000000000429e+00 2.317950000000000177e+00 2.436209999999999987e+00 1.254790000000000028e+01 3.292149999999999910e+00 1.670549999999999979e+00 1.013959999999999972e+00 4.052319999999999922e+00 7.774400000000000199e-01 1.619650000000000034e+01
1.784520000000000106e+00 1.500420000000000087e+00 7.878619999999999735e+00 3.922779999999999934e+00 7.805800000000000516e-01 4.042799999999999727e+00 2.003480000000000150e+00 1.843080000000000052e+00 1.317070000000000007e+01 4.079710000000000392e+00 8.728900000000000547e-01 9.703120000000000189e+00 1.713880000000000070e+00 1.918719999999999981e+00 5.194099999999999717e+00 2.033479999999999954e+00 5.486199999999999966e-01 1.843499999999999872e+01 1.912269999999999914e+00 1.755260000000000042e+00 2.712810000000000166e+00 3.986380000000000035e+00 2.302109999999999879e+00 1.953450000000000131e+01 1.922220000000000040e+00 1.926250000000000018e+00 1.038969999999999949e+01 1.743109999999999937e+00 8.418600000000000527e-01 3.850100000000000189e-01 3.974950000000000205e+00 4.830499999999999794e-01 1.217179999999999929e+01 4.013010000000000410e+00 2.615500000000000047e-01 6.285210000000000186e+00
3.545469999999999899e+00 7.510999999999999899e-01 1.247460000000000058e+01 2.879919999999999813e+00 2.454759999999999831e+00 7.610780000000000101e+00 1.000229999999999952e+00 1.173929999999999918e+00 6.149790000000000312e+00 9.334500000000000020e-01 1.096729999999999983e+00 3.558850000000000069e+00 3.262820000000000054e+00 1.232439999999999980e+00 5.314770000000000216e+00 4.159169999999999590e+00 6.478300000000000169e-01 9.536299999999999777e-01 5.674700000000000299e-01 3.591599999999999793e-01 1.889150000000000063e+01 1.521779999999999911e+00 1.824199999999999988e-01 1.429669999999999952e+01 1.193040000000000100e+00 1.983479999999999910e+00 1.131250000000000000e+01 2.563190000000000079e+00 2.193249999999999922e+00 1.997269999999999968e+01 2.577259999999999884e+00 2.363869999999999916e+00 2.445170000000000066e+00 1.120610000000000106e+00 9.022599999999999509e-01 8.879540000000000433e+00
2.034450000000000092e+00 1.559690000000000021e+00 2.783999999999999808e-01 2.408700000000000008e-01 9.604599999999999804e-01 1.565099999999999936e+00 3.737540000000000084e+00 1.829800000000000093e+00 4.336909999999999599e+00 3.517799999999999816e-01 1.436490000000000045e+00 6.284609999999999808e+00 1.855839999999999934e+00 1.020080000000000098e+00 4.862429999999999808e+00 2.208029999999999937e+00 2.053399999999999948e-01 6.809230000000000338e+00 2.278739999999999988e+00 9.831999999999999629e-01 9.645139999999999603e+00 3.976679999999999993e+00 6.723999999999999422e-02 1.382440000000000069e+01 5.570000000000000298e-03 1.996480000000000032e+00 8.485329999999999373e+00 1.947359999999999980e+00 2.433600000000000207e+00 2.954750000000000210e+00 3.829860000000000042e+00 1.916860000000000008e+00 1.132779999999999987e+01 1.844719999999999915e+00 3.183300000000000018e-01 1.226149999999999984e+01
8.162000000000000366e-01 6.695200000000000040e-01 9.429320000000000590e+00 2.468109999999999804e+00 1.700129999999999919e+00 1.078059999999999974e+01 3.305099999999999927e+00 2.170269999999999921e+00 4.581710000000000171e+00 2.450380000000000003e+00 1.361680000000000001e+00 2.013250000000000028e+01 2.249599999999999933e-01 5.010299999999999754e-01 1.352759999999999962e+01 3.030460000000000154e+00 2.204649999999999999e+00 7.851060000000000372e+00 9.595799999999999885e-01 1.162279999999999980e+00 1.852639999999999887e+01 9.842199999999999838e-01 1.609560000000000102e+00 6.661520000000000330e+00 2.559579999999999966e+00 1.405469999999999997e+00 1.285299999999999976e+01 3.009830000000000005e+00 1.514999999999999958e-01 1.777980000000000160e+01 4.248500000000000054e-01 2.341740000000000155e+00 2.056690000000000040e+01 4.487400000000000277e-01 2.261890000000000178e+00 1.136780000000000079e+01
3.752019999999999911e+00 9.540600000000000191e-01 8.231519999999999726e+00 1.777640000000000109e+00 1.915380000000000082e+00 1.404749999999999943e+01 1.794529999999999959e+00 1.340349999999999930e+00 2.001150000000000162e+01 3.708190000000000097e+00 5.720300000000000384e-01 1.354850000000000065e+01 3.713989999999999903e+00 2.437230000000000008e+00 2.112620000000000164e+00 3.420510000000000161e+00 1.962769999999999904e+00 1.017379999999999995e+01 1.451900000000000135e-01 2.451049999999999951e+00 2.136280000000000001e+01 1.218939999999999912e+00 1.389489999999999892e+00 1.177880000000000038e+01 1.577530000000000099e+00 1.704620000000000024e+00 3.387230000000000185e+00 1.658169999999999922e+00 1.443990000000000107e+00 1.026909999999999989e+00 1.897189999999999932e+00 1.203659999999999952e+00 9.064959999999999241e+00 3.699059999999999793e+00 2.261369999999999880e+00 1.901040000000000063e+01
3.722220000000000084e+00 1.910439999999999916e+00 9.165269999999999584e+00 3.108859999999999957e+00 5.602200000000000513e-01 1.164589999999999925e+01 1.455999999999999961e+00 1.798000000000000043e+00 1.045190000000000019e+01 3.730059999999999931e+00 1.834279999999999911e+00 1.413260000000000005e+01 3.267300000000000093e+00 4.390100000000000113e-01 5.429120000000000168e+00 9.953100000000000280e-01 1.106049999999999978e+00 1.279710000000000036e+01 1.574650000000000105e+00 1.599450000000000038e+00 1.825989999999999824e+01 8.255599999999999605e-01 1.430600000000000094e+00 1.297630000000000061e+00 1.118339999999999890e+00 1.502879999999999994e+00 4.963140000000000107e+00 2.610980000000000079e+00 3.583999999999999686e-02 1.811379999999999990e+00 2.978100000000000191e-01 3.150200000000000222e-01 3.150440000000000129e+00 3.630320000000000213e+00 7.643400000000000194e-01 1.867060000000000031e+01
1.423459999999999948e+00 2.514999999999999875e-02 8.147199999999999775e+00 2.443940000000000001e+00 1.427229999999999999e+00 1.050169999999999959e+01 2.086650000000000116e+00 1.059029999999999916e+00 5.544649999999999856e+00 2.805769999999999875e+00 7.663000000000000367e-02 2.054639999999999844e+01 1.862000000000000044e-01 2.095700000000000063e-01 1.413700000000000045e+01 3.654799999999999827e+00 1.416660000000000030e+00 7.821990000000000443e+00 1.009050000000000002e+00 2.174370000000000136e+00 1.880339999999999989e+01 3.967550000000000132e+00 1.830780000000000074e+00 4.099249999999999616e+00 2.622700000000000031e+00 1.821890000000000009e+00 1.282959999999999923e+01 3.333400000000000141e+00 7.681900000000000395e-01 1.846890000000000143e+01 4.363900000000000001e-01 1.535349999999999993e+00 4.294799999999999729e-01 8.480199999999999960e-01 1.842000000000000026e-01 1.165109999999999957e+01
3.456949999999999967e+00 6.462499999999999911e-01 1.241350000000000087e+01 2.819449999999999790e+00 2.481090000000000018e+00 7.614300000000000068e+00 9.816099999999999826e-01 1.139920000000000044e+00 6.170969999999999622e+00 9.842800000000000438e-01 1.091599999999999904e+00 3.649249999999999883e+00 3.163769999999999971e+00 1.330510000000000081e+00 5.387809999999999988e+00 4.179719999999999658e+00 6.095099999999999962e-01 1.196930000000000049e+00 7.219200000000000061e-01 4.005799999999999916e-01 1.879810000000000159e+01 1.510399999999999965e+00 1.265799999999999981e-01 1.422710000000000008e+01 1.236869999999999914e+00 1.974320000000000075e+00 1.125760000000000005e+01 2.631130000000000191e+00 2.319669999999999899e+00 1.988870000000000005e+01 2.595829999999999860e+00 2.376079999999999970e+00 2.383469999999999978e+00 1.042480000000000073e+00 8.450999999999999623e-01 8.872880000000000322e+00
2.604000000000000203e-01 7.193399999999999794e-01 8.958890000000000242e+00 4.068899999999999739e-01 1.443610000000000060e+00 5.659600000000000186e-01 1.098300000000000054e+00 8.700200000000000156e-01 1.645830000000000126e+01 2.409999999999999816e-03 1.696029999999999927e+00 6.564070000000000071e+00 2.031719999999999970e+00 2.207969999999999988e+00 8.244550000000000267e+00 2.563730000000000064e+00 1.983999999999999930e-01 2.269200000000000106e-01 2.593119999999999870e+00 1.456010000000000026e+00 1.281920000000000037e+01 2.403189999999999937e+00 2.053699999999999970e-01 1.060169999999999924e+01 5.541800000000000059e-01 1.647270000000000012e+00 1.126449999999999996e+01 2.984700000000000131e-01 2.959300000000000264e-01 4.046829999999999927e+00 2.130370000000000097e+00 5.370599999999999818e-01 5.987269999999999648e+00 2.540989999999999860e+00 1.507740000000000080e+00 3.778099999999999792e+00
3.610409999999999897e+00 8.508499999999999952e-01 1.255090000000000039e+01 2.973450000000000149e+00 2.415480000000000071e+00 7.582200000000000273e+00 1.105879999999999974e+00 1.201349999999999918e+00 6.212119999999999642e+00 8.256400000000000405e-01 1.098799999999999999e+00 3.496379999999999821e+00 3.252749999999999808e+00 1.143189999999999928e+00 5.170630000000000059e+00 6.629999999999999609e-03 7.345300000000000162e-01 7.403999999999999471e-01 3.978999999999999759e-01 3.361199999999999743e-01 1.899269999999999925e+01 1.532089999999999952e+00 2.348000000000000087e-01 1.429439999999999955e+01 1.170679999999999943e+00 1.999009999999999954e+00 1.137509999999999977e+01 2.475589999999999957e+00 2.027829999999999799e+00 2.004570000000000007e+01 2.584119999999999973e+00 2.329849999999999977e+00 2.504100000000000215e+00 1.168930000000000025e+00 9.694099999999999939e-01 8.895910000000000650e+00
3.110440000000000094e+00 1.176360000000000072e+00 1.933810000000000029e+00 1.163079999999999892e+00 2.180800000000000072e+00 1.152420000000000044e+01 1.005659999999999998e+00 7.825000000000000011e-02 1.352640000000000065e+00 2.089980000000000171e+00 1.970529999999999893e+00 7.945129999999999804e+00 1.361939999999999928e+00 6.591700000000000337e-01 1.358730000000000082e+01 1.651110000000000078e+00 1.718329999999999913e+00 2.168909999999999982e+01 2.335999999999999854e+00 1.068899999999999961e+00 4.948100000000000165e+00 3.372279999999999944e+00 9.204799999999999649e-01 2.060660000000000025e+01 8.165799999999999725e-01 1.058740000000000014e+00 9.132270000000000110e+00 2.779499999999999749e-01 1.484210000000000029e+00 6.395369999999999777e+00 1.940800000000000025e-01 2.479169999999999874e+00 4.230739999999999945e+00 3.725010000000000154e+00 5.462799999999999878e-01 1.251529999999999987e+01
2.056200000000000028e+00 4.157899999999999929e-01 9.657500000000000639e+00 3.406199999999999783e-01 5.518199999999999772e-01 4.918440000000000367e+00 3.550650000000000084e+00 2.499179999999999957e+00 1.452779999999999916e+01 1.963249999999999940e+00 2.289379999999999971e+00 6.517900000000000027e+00 4.065080000000000027e+00 1.218290000000000095e+00 7.534290000000000376e+00 8.987199999999999633e-01 9.241899999999999560e-01 1.343660000000000032e+01 2.207089999999999996e+00 6.649100000000000010e-01 1.959799999999999986e+00 2.981090000000000018e+00 1.738229999999999942e+00 1.206550000000000011e+01 2.592319999999999958e+00 1.814799999999999969e+00 4.151239999999999597e+00 4.164100000000000357e+00 2.239139999999999908e+00 2.428850000000000176e+00 7.080100000000000282e-01 1.676709999999999923e+00 1.561720000000000041e+01 4.017629999999999590e+00 1.865250000000000075e+00 1.004550000000000054e+01
1.512250000000000094e+00 1.716539999999999955e+00 9.391080000000000538e+00 2.314540000000000042e+00 9.170999999999999985e-02 2.706039999999999779e+00 1.975019999999999998e+00 2.167699999999999905e-01 2.149999999999999967e-01 1.445500000000000007e+00 1.253900000000000015e-01 1.137710000000000043e+01 4.046439999999999593e+00 4.763700000000000156e-01 1.702139999999999986e+01 3.535400000000000209e-01 1.581350000000000033e+00 1.449869999999999992e+00 2.216250000000000053e+00 2.346789999999999932e+00 1.600779999999999959e+01 1.510000000000000057e-03 2.469099999999999906e-01 3.759640000000000093e+00 3.926959999999999784e+00 5.112200000000000077e-01 8.990069999999999339e+00 1.430460000000000065e+00 1.499549999999999939e+00 1.406109999999999971e+01 3.762999999999999901e+00 4.551000000000000045e-01 1.400849999999999973e+01 3.351910000000000167e+00 1.369680000000000009e+00 1.078720000000000034e+01
3.608179999999999943e+00 1.892099999999999893e-01 1.488630000000000031e+01 1.635119999999999907e+00 1.637099999999999944e-01 1.637259999999999938e+00 3.014219999999999899e+00 1.260150000000000103e+00 1.238150000000000084e+01 3.057099999999999818e-01 1.610749999999999904e+00 5.648480000000000167e+00 1.945859999999999923e+00 4.849999999999999867e-01 6.375609999999999999e+00 5.916700000000000292e-01 1.866299999999999903e-01 1.241269999999999918e+01 1.496599999999999875e-01 1.764539999999999997e+00 3.300640000000000018e+00 1.148640000000000105e+00 2.020000000000000018e+00 1.478079999999999927e+01 3.534769999999999968e+00 9.610100000000000309e-01 1.032699999999999996e+01 1.449279999999999902e+00 2.539919999999999956e+00 1.032179999999999964e+01 2.549609999999999932e+00 4.929999999999999938e-01 4.365219999999999878e+00 2.015540000000000109e+00 1.622219999999999995e+00 8.337759999999999394e+00
2.764599999999999835e-01 5.571399999999999686e-01 7.183830000000000382e+00 5.990199999999999969e-01 1.587050000000000072e+00 4.290130000000000443e+00 2.722220000000000084e+00 2.229849999999999888e+00 1.085790000000000077e+01 8.580499999999999794e-01 1.299770000000000092e+00 1.221560000000000024e+01 2.501310000000000144e+00 3.383599999999999941e-01 3.282659999999999911e+00 4.711600000000000232e-01 1.218509999999999982e+00 2.039019999999999833e+00 4.200800000000000090e-01 2.340889999999999915e+00 9.726760000000000517e+00 3.030590000000000117e+00 1.976400000000000101e-01 2.061299999999999955e+01 2.055779999999999941e+00 1.159440000000000026e+00 8.422090000000000742e+00 3.452030000000000154e+00 1.978569999999999940e+00 1.864509999999999934e+01 2.976329999999999920e+00 1.792900000000000049e-01 1.326590000000000025e+01 8.968800000000000106e-01 1.641070000000000029e+00 2.021460000000000079e+01
2.011010000000000186e+00 1.436790000000000012e+00 3.133799999999999919e-01 1.759000000000000008e-01 1.008520000000000083e+00 1.714569999999999927e+00 3.764320000000000110e+00 1.805180000000000007e+00 4.358450000000000379e+00 3.274599999999999733e-01 1.353709999999999969e+00 6.388910000000000089e+00 1.808650000000000091e+00 1.015859999999999985e+00 4.787569999999999659e+00 2.173509999999999831e+00 1.574099999999999944e-01 6.726140000000000008e+00 2.138199999999999878e+00 9.977000000000000313e-01 9.789049999999999585e+00 3.931540000000000035e+00 1.523000000000000048e-02 1.380359999999999943e+01 4.010259999999999714e+00 2.063769999999999882e+00 8.304460000000000619e+00 2.088060000000000027e+00 2.416549999999999976e+00 2.978289999999999882e+00 3.962110000000000021e+00 2.008669999999999956e+00 1.134029999999999916e+01 1.971940000000000026e+00 4.481800000000000228e-01 1.213080000000000069e+01
3.145220000000000127e+00 1.470679999999999987e+00 1.198629999999999995e+01 4.903799999999999826e-01 2.200569999999999915e+00 1.925100000000000033e+00 2.700899999999999856e+00 1.327120000000000077e+00 2.342439999999999856e+00 1.030410000000000048e+00 1.808800000000000130e-01 1.104039999999999999e+01 2.335200000000000053e-01 3.986600000000000144e-01 2.076200000000000045e+01 2.277649999999999952e+00 1.022080000000000100e+00 1.569999999999999868e-02 1.291979999999999906e+00 1.557420000000000027e+00 8.813200000000000145e+00 1.126109999999999944e+00 6.422299999999999676e-01 4.039950000000000152e+00 3.507140000000000146e+00 4.101099999999999746e-01 7.570109999999999673e+00 1.333939999999999904e+00 2.203059999999999796e+00 6.428250000000000242e+00 3.161690000000000111e+00 2.025570000000000093e+00 4.687260000000000204e+00 8.051599999999999868e-01 1.902830000000000021e+00 1.290549999999999997e+01
1.410800000000000110e-01 7.956100000000000394e-01 1.312170000000000059e+01 3.907890000000000086e+00 2.701999999999999888e-02 1.050750000000000028e+01 1.711600000000000066e-01 2.186770000000000103e+00 1.793489999999999895e+01 3.907869999999999955e+00 1.203920000000000101e+00 2.020830000000000126e+00 1.844959999999999933e+00 5.702000000000000124e-02 5.438180000000000014e+00 2.096540000000000070e+00 1.548280000000000101e+00 1.446720000000000006e+01 2.116260000000000030e+00 2.252780000000000005e+00 1.234720000000000084e+01 3.762529999999999930e+00 1.976999999999999938e-02 7.252480000000000260e+00 1.462299999999999989e-01 6.934900000000000508e-01 1.575849999999999973e+01 2.126640000000000086e+00 1.624910000000000077e+00 5.973199999999999621e-01 1.879680000000000017e+00 1.024829999999999908e+00 8.305440000000000822e+00 2.210599999999999898e+00 8.389600000000000390e-01 1.700550000000000139e+01
2.924830000000000041e+00 1.148590000000000000e+00 1.185849999999999937e+01 5.045199999999999685e-01 2.436580000000000190e+00 1.793350000000000000e+00 2.543449999999999989e+00 1.464550000000000018e+00 2.493599999999999817e+00 9.017800000000000260e-01 2.510399999999999854e-01 1.052190000000000047e+01 2.764900000000000135e-01 5.187300000000000244e-01 2.073699999999999832e+01 2.395900000000000141e+00 1.266089999999999938e+00 3.189799999999999858e-01 1.673699999999999966e+00 1.666190000000000060e+00 8.526590000000000558e+00 6.459000000000000297e-01 5.703099999999999836e-01 4.164760000000000240e+00 3.765379999999999949e+00 2.161899999999999933e-01 8.088440000000000296e+00 1.565369999999999928e+00 2.340800000000000214e+00 6.234340000000000437e+00 2.905980000000000008e+00 1.587210000000000010e+00 4.562190000000000190e+00 1.000790000000000068e+00 1.874929999999999986e+00 1.321659999999999968e+01
1.016860000000000097e+00 1.766310000000000047e+00 9.509589999999999321e+00 4.515999999999999875e-02 2.521529999999999827e+00 2.746030000000000193e+00 1.523390000000000022e+00 9.812499999999999556e-01 7.374410000000000132e+00 3.234449999999999825e+00 3.149100000000000232e-01 9.975709999999999411e+00 2.012539999999999996e+00 2.408659999999999801e+00 5.246520000000000294e+00 2.178529999999999855e+00 1.465840000000000032e+00 2.568090000000000206e+00 3.918820000000000192e+00 1.239389999999999992e+00 5.734650000000000247e+00 3.885580000000000034e+00 2.432110000000000216e+00 7.816639999999999588e+00 3.624080000000000190e+00 1.519770000000000065e+00 4.266599999999999837e-01 1.222280000000000033e+00 3.715499999999999914e-01 7.020399999999999974e-01 8.099399999999999933e-01 2.378140000000000143e+00 1.135210000000000008e+01 3.372269999999999879e+00 1.572100000000000053e+00 1.198980000000000068e+01
1.671869999999999967e+00 2.379500000000000171e+00 2.784400000000000208e-01 4.111999999999999683e-02 1.585180000000000033e+00 1.576670000000000016e+00 2.099139999999999784e+00 2.404749999999999943e+00 4.950470000000000148e+00 2.155209999999999848e+00 1.051050000000000040e+00 9.919520000000000337e+00 2.236209999999999809e+00 4.168700000000000183e-01 2.780809999999999782e+00 2.109949999999999992e+00 1.181969999999999965e+00 1.201379999999999981e+01 3.236700000000000133e-01 2.052709999999999813e+00 3.708200000000000163e+00 1.465500000000000136e-01 2.325919999999999987e+00 1.107990000000000030e+01 9.800999999999999990e-02 1.197040000000000104e+00 6.598489999999999966e+00 1.741379999999999928e+00 1.740979999999999972e+00 7.475259999999999572e+00 3.842270000000000074e+00 4.318000000000000310e-02 8.663949999999999818e+00 3.794540000000000024e+00 8.026299999999999546e-01 1.308999999999999986e+01
1.009139999999999926e+00 1.658239999999999936e+00 1.734550000000000036e+00 1.068459999999999965e+00 2.563070000000000181e+00 8.035669999999999646e+00 6.442200000000000149e-01 5.742199999999999527e-01 1.390959999999999930e+01 2.561300000000000132e+00 2.313499999999999890e+00 1.474869999999999948e+01 5.812800000000000189e-01 1.871809999999999974e+00 4.384719999999999729e+00 2.964570000000000149e+00 8.692499999999999671e-01 9.428589999999999804e+00 2.923909999999999787e+00 4.674900000000000166e-01 3.258630000000000138e+00 1.439529999999999976e+00 2.118630000000000013e+00 1.687209999999999965e+01 3.454060000000000130e+00 1.581930000000000058e+00 6.816320000000000157e+00 2.349860000000000060e+00 2.296419999999999906e+00 1.254790000000000028e+01 3.193060000000000009e+00 1.548559999999999937e+00 1.040380000000000082e+00 4.148010000000000197e+00 7.504600000000000160e-01 1.599779999999999980e+01
4.164819999999999744e+00 6.312499999999999778e-01 8.995699999999999363e+00 4.501299999999999746e-01 1.627089999999999925e+00 4.101600000000000246e-01 1.312259999999999982e+00 9.032999999999999918e-01 1.639979999999999905e+01 4.212369999999999948e+00 1.311760000000000037e+00 6.472909999999999719e+00 2.072670000000000012e+00 1.725070000000000103e+00 8.343320000000000292e+00 2.519919999999999938e+00 3.280899999999999928e-01 4.386099999999999999e-01 2.548820000000000086e+00 1.693769999999999998e+00 1.287790000000000035e+01 2.430860000000000021e+00 2.595199999999999729e-01 1.062979999999999947e+01 2.305399999999999949e-01 1.719410000000000105e+00 1.136790000000000056e+01 6.026599999999999735e-01 3.870000000000000107e-01 3.887350000000000083e+00 2.234589999999999854e+00 3.891299999999999759e-01 6.109589999999999854e+00 2.544789999999999885e+00 1.809369999999999923e+00 3.583180000000000032e+00
3.321089999999999876e+00 1.513899999999999968e-01 1.490700000000000003e+01 3.997110000000000163e+00 1.806200000000000028e+00 2.196299999999999919e+00 1.767500000000000071e+00 3.306100000000000150e-01 1.255749999999999922e+01 8.007699999999999818e-01 1.060089999999999977e+00 7.268390000000000128e+00 1.136749999999999927e+00 2.365369999999999973e+00 4.191379999999999661e+00 4.332880000000000287e+00 1.398249999999999993e+00 1.250859999999999950e+01 2.956799999999999873e+00 6.272699999999999942e-01 5.809330000000000105e+00 1.124039999999999928e+00 1.521260000000000057e+00 1.516699999999999982e+01 2.692200000000000149e-01 6.091499999999999693e-01 9.720420000000000726e+00 2.132249999999999979e+00 5.645499999999999963e-01 1.013449999999999918e+01 1.668600000000000083e+00 6.703700000000000214e-01 2.382929999999999993e+00 2.830379999999999896e+00 2.191629999999999967e+00 7.931680000000000064e+00
3.026299999999999990e+00 1.271740000000000093e+00 1.192539999999999978e+01 4.942400000000000126e-01 2.328100000000000058e+00 1.906519999999999992e+00 2.600309999999999899e+00 1.458329999999999904e+00 2.378789999999999960e+00 9.465299999999999825e-01 2.050700000000000023e-01 1.069669999999999987e+01 3.383800000000000141e-01 5.175499999999999545e-01 2.074510000000000076e+01 2.298840000000000217e+00 1.166719999999999979e+00 3.038100000000000245e-01 1.533320000000000016e+00 1.657359999999999944e+00 8.627039999999999154e+00 8.037900000000000045e-01 5.809999999999999609e-01 4.117910000000000181e+00 3.693239999999999856e+00 2.681999999999999940e-01 7.925200000000000244e+00 1.508769999999999945e+00 2.288609999999999811e+00 6.255720000000000169e+00 2.948949999999999960e+00 1.717700000000000005e+00 4.527219999999999800e+00 9.114299999999999624e-01 1.880840000000000067e+00 1.310689999999999955e+01