-4.030092754400978805e+00 -1.178556305032248952e+00 -1.153452497133309773e+00 -1.178556305032248952e+00 4.650893673508951220e-01 -1.061085333415868526e+00 -1.153452497133309773e+00 -1.061085333415868526e+00 -8.177057603304676903e+00
-9.299072965606814734e+00 9.430662008750916037e-02 -1.238278944951084926e+00 9.430662008750916037e-02 -1.115185054093067407e+01 -2.263696835145750708e+00 -1.238278944951084926e+00 -2.263696835145750708e+00 9.659861257933222589e+00
8.565469255526259929e+00 2.607720590507724534e+00 4.979046023416636046e+00 2.607720590507724534e+00 4.585818790358547226e+00 4.021461166066114146e+00 4.979046023416636046e+00 4.021461166066114146e+00 -2.972410065124820644e+00
4.404074963386777064e+00 -1.201972089435885849e+00 -2.675282947971063141e+00 -1.201972089435885849e+00 5.175302274092207888e+00 -1.718009625963203169e+00 -2.675282947971063141e+00 -1.718009625963203169e+00 6.991242306789829719e+00
-1.073587953135871409e+00 1.098331321642006309e+00 -8.190969108965147072e-01 1.098331321642006309e+00 -5.389315664262990246e+00 8.907489130663263921e-02 -8.190969108965147072e-01 8.907489130663263921e-02 -1.155063554375645118e+01
2.775162084423741238e+00 6.794631614703116052e-01 -1.005065344387242376e+00 6.794631614703116052e-01 3.628064162466608344e+00 2.038174264383814382e-01 -1.005065344387242376e+00 2.038174264383814382e-01 8.249455379539394784e+00
7.106605806258585734e-01 -1.119619448654220584e+00 1.612056813337096495e+00 -1.119619448654220584e+00 -1.222503167835115967e+01 -4.843793540122938168e-01 1.612056813337096495e+00 -4.843793540122938168e-01 3.726660380852828247e+00
-4.850831189507164076e+00 -8.741554231303929612e-01 -7.371173617802601052e-02 -8.741554231303929612e-01 -1.383910380146602925e+01 5.407932229034673188e-01 -7.371173617802601052e-02 5.407932229034673188e-01 -5.505538637847646299e+00
-7.430035267446452707e+00 -2.695030724531815580e-01 -3.716834213656746155e-01 -2.695030724531815580e-01 -4.853636691510977208e+00 1.198361035029591015e+00 -3.716834213656746155e-01 1.198361035029591015e+00 -3.526229661518475167e-01
-3.945855997087941880e+00 4.091508555973351058e-01 -5.739189770897656917e-01 4.091508555973351058e-01 -9.656000469997248814e+00 7.350168776817297966e-02 -5.739189770897656917e-01 7.350168776817297966e-02 -1.035035447849392654e+01
1.773190438106204070e+01 1.654340505305208764e-01 -1.240872167658128689e+00 1.654340505305208764e-01 1.323270710639213554e+01 -1.216926491846798575e+00 -1.240872167658128689e+00 -1.216926491846798575e+00 1.915432832511019612e+01
7.872064450866735896e+00 -1.089387194071082199e+00 3.092868942095345020e+00 -1.089387194071082199e+00 -1.923866476228083544e-01 1.294332620891873453e-01 3.092868942095345020e+00 1.294332620891873453e-01 8.457673250076103599e+00
9.035315742341675005e+00 1.348635015606048038e+00 1.064104664657158583e+00 1.348635015606048038e+00 4.623088612758378346e+00 2.501559225795254804e+00 1.064104664657158583e+00 2.501559225795254804e+00 4.930467479794026886e+00
4.777255547096350141e-01 1.607438045732760279e-01 -3.140433855636453053e-01 1.607438045732760279e-01 -9.746228038852523312e+00 -9.653703242192496203e-01 -3.140433855636453053e-01 -9.653703242192496203e-01 5.236319668029255858e+00
1.027956456574381283e+00 -4.224905275943621197e-01 2.945536045831761207e+00 -4.224905275943621197e-01 -1.377543904793151697e+00 -1.486416647329188434e+00 2.945536045831761207e+00 -1.486416647329188434e+00 -4.345111318192241612e+00
-3.255817477891923328e+00 5.739436370286266076e-01 -2.191998675404746244e+00 5.739436370286266076e-01 -1.012690940247854599e+01 -6.941101491012768854e-01 -2.191998675404746244e+00 -6.941101491012768854e-01 -9.877742640234622229e+00
3.251720864637955982e-02 -3.519623726741072378e-01 -1.736633639542248364e+00 -3.519623726741072378e-01 -3.787679767960252519e+00 -1.674433035896672195e-01 -1.736633639542248364e+00 -1.674433035896672195e-01 -8.254108552354340489e+00
-8.033887501681904908e+00 1.963944930815580137e-01 -2.269673372826828128e+00 1.963944930815580137e-01 -9.842378917911462466e+00 5.895314583819336596e-01 -2.269673372826828128e+00 5.895314583819336596e-01 -9.265403478399546700e+00
3.985245865284967604e+00 2.037514241113294600e-01 -6.657478323638108542e+00 2.037514241113294600e-01 -4.623870225975859505e+00 1.341003422523641575e+00 -6.657478323638108542e+00 1.341003422523641575e+00 -3.414459901162025246e-01
5.272188210763413707e+00 -3.374942677734629193e+00 2.506214176518079206e+00 -3.374942677734629193e+00 -1.653183916825663680e+00 -3.729785033485618850e+00 2.506214176518079206e+00 -3.729785033485618850e+00 -2.213819090523394983e+00
3.498590154691043619e-01 2.205461095166463270e+00 -1.264045326290117732e-01 2.205461095166463270e+00 -8.572363635181606156e+00 6.460370249342945570e+00 -1.264045326290117732e-01 6.460370249342945570e+00 6.166148604364500407e+00
2.399773606594912234e+00 -4.597247906575217868e+00 -3.225887258935198787e+00 -4.597247906575217868e+00 -7.929992138428461068e+00 2.257706095106904787e+00 -3.225887258935198787e+00 2.257706095106904787e+00 7.818159812019903399e+00
5.481873523877213827e+00 -9.327515320248233599e-02 -3.827548836965672052e+00 -9.327515320248233599e-02 2.729413785008454330e+00 1.773153933539264759e+00 -3.827548836965672052e+00 1.773153933539264759e+00 2.304932473788722458e+00
1.632831050223722613e+01 -1.651109499867866592e+00 -9.469030723434460617e-01 -1.651109499867866592e+00 1.446099185237257068e+01 -1.956987487955864219e-02 -9.469030723434460617e-01 -1.956987487955864219e-02 1.996927617621560103e+01
2.863142601837251444e+00 2.732822114490569998e+00 6.825526182090763117e-01 2.732822114490569998e+00 -5.605129178181203820e+00 -1.389412045452428357e+00 6.825526182090763117e-01 -1.389412045452428357e+00 1.943151943015607230e+00
-3.182094435475495864e+00 -7.132894926106396749e-01 -2.371413281881927515e-01 -7.132894926106396749e-01 8.645999396532920711e-01 -1.611995075296275060e+00 -2.371413281881927515e-01 -1.611995075296275060e+00 -6.104815543245155851e+00
-3.176288066342751737e+00 -2.168616964927003288e+00 -9.219440000479217634e-01 -2.168616964927003288e+00 -6.640786671809499886e+00 1.686909220090022421e+00 -9.219440000479217634e-01 1.686909220090022421e+00 5.220631421435178332e+00
-3.390626624791072352e+00 -6.952389459112827685e-01 -1.998261716799432319e+00 -6.952389459112827685e-01 -9.180623269228297190e+00 5.552231082888169134e+00 -1.998261716799432319e+00 5.552231082888169134e+00 8.627305315632311178e+00
2.245228696906378829e+01 2.469371547244404663e+00 5.935217810704771502e+00 2.469371547244404663e+00 1.130756763198588466e+01 1.393691705866644481e+00 5.935217810704771502e+00 1.393691705866644481e+00 2.630800919245963954e+01
-3.993850616095151906e+00 -8.693367443126557292e-01 3.151250134631738309e+00 -8.693367443126557292e-01 -1.365830398507401533e+01 -2.413554328874670807e-01 3.151250134631738309e+00 -2.413554328874670807e-01 -3.168921155113594956e+00
5.853369325747789231e-01 3.710529376713017080e-01 -6.279775513513519147e-01 3.710529376713017080e-01 -5.852319307613480071e+00 -5.598449629046543113e-02 -6.279775513513519147e-01 -5.598449629046543113e-02 -1.218617693162118698e+01
7.806675728422822758e+00 -1.238561720153362078e+00 2.033886872550553448e+00 -1.238561720153362078e+00 -1.039861648321829612e+01 -2.333705123706254270e+00 2.033886872550553448e+00 -2.333705123706254270e+00 -1.007815421130986167e+01
-1.928350244746139364e+00 4.962550344257636581e-02 1.094027756467982337e+00 4.962550344257636581e-02 -6.702721530853136933e+00 2.497808861698995742e+00 1.094027756467982337e+00 2.497808861698995742e+00 5.251657781781336354e+00
6.744312093537224939e+00 -1.426266069922995872e+00 -1.300314118071767666e+00 -1.426266069922995872e+00 1.590749506976432803e+00 4.370696358830892692e+00 -1.300314118071767666e+00 4.370696358830892692e+00 8.664651009547833738e+00
1.078969391451785331e-01 -3.968917157464963985e+00 6.506774006564494117e-01 -3.968917157464963985e+00 -6.724853174840366599e+00 5.878691678175087532e+00 6.506774006564494117e-01 5.878691678175087532e+00 1.016612877755850342e+01
2.706213684529119590e+00 3.848473015880298220e-01 3.284117845145719361e+00 3.848473015880298220e-01 -7.093047006778048669e+00 8.747071898646540111e-01 3.284117845145719361e+00 8.747071898646540111e-01 3.629557932157446487e+00
4.343607520051157245e+00 1.043777100740951591e-01 4.351962949779693446e+00 1.043777100740951591e-01 -7.432853078448595774e-01 -1.928969473054192862e+00 4.351962949779693446e+00 -1.928969473054192862e+00 -7.817047933638460178e-02
3.105919299532626521e-02 -4.699593878354919596e+00 -2.860011759208155091e+00 -4.699593878354919596e+00 -1.690515528725720973e+00 -5.672128437161993997e-01 -2.860011759208155091e+00 -5.672128437161993997e-01 5.167935437201474080e+00
