5.302773926000000415e+00 0.000000000000000000e+00 0.000000000000000000e+00 6.196391899999999925e-02 3.853885986999999957e+00 0.000000000000000000e+00 1.964014629999999983e-01 -5.076455420000000052e-01 1.862255728899999951e+01
5.302773926000000415e+00 0.000000000000000000e+00 0.000000000000000000e+00 6.196391899999999925e-02 3.853885986999999957e+00 0.000000000000000000e+00 1.964014629999999983e-01 -5.076455420000000052e-01 1.862255728899999951e+01
5.549372885999999561e+00 0.000000000000000000e+00 0.000000000000000000e+00 9.157746999999999415e-02 3.847058778000000068e+00 0.000000000000000000e+00 -2.252760819999999886e-01 -3.696680030000000228e-01 1.313507390600000058e+01
5.302773926000000415e+00 0.000000000000000000e+00 0.000000000000000000e+00 6.196391899999999925e-02 3.853885986999999957e+00 0.000000000000000000e+00 1.964014629999999983e-01 -5.076455420000000052e-01 1.862255728899999951e+01
5.302773926000000415e+00 0.000000000000000000e+00 0.000000000000000000e+00 6.196391899999999925e-02 3.853885986999999957e+00 0.000000000000000000e+00 1.964014629999999983e-01 -5.076455420000000052e-01 1.862255728899999951e+01
5.302773926000000415e+00 0.000000000000000000e+00 0.000000000000000000e+00 6.196391899999999925e-02 3.853885986999999957e+00 0.000000000000000000e+00 1.964014629999999983e-01 -5.076455420000000052e-01 1.862255728899999951e+01
4.877492764000000314e+00 0.000000000000000000e+00 0.000000000000000000e+00 -5.353657400000000344e-02 3.663720765999999962e+00 0.000000000000000000e+00 3.372745109999999991e-01 -4.125875019999999949e-01 1.768324745900000039e+01
5.302773926000000415e+00 0.000000000000000000e+00 0.000000000000000000e+00 6.196391899999999925e-02 3.853885986999999957e+00 0.000000000000000000e+00 1.964014629999999983e-01 -5.076455420000000052e-01 1.862255728899999951e+01
5.302773926000000415e+00 0.000000000000000000e+00 0.000000000000000000e+00 6.196391899999999925e-02 3.853885986999999957e+00 0.000000000000000000e+00 1.964014629999999983e-01 -5.076455420000000052e-01 1.862255728899999951e+01
5.302773926000000415e+00 0.000000000000000000e+00 0.000000000000000000e+00 6.196391899999999925e-02 3.853885986999999957e+00 0.000000000000000000e+00 1.964014629999999983e-01 -5.076455420000000052e-01 1.862255728899999951e+01
5.302773926000000415e+00 0.000000000000000000e+00 0.000000000000000000e+00 6.196391899999999925e-02 3.853885986999999957e+00 0.000000000000000000e+00 1.964014629999999983e-01 -5.076455420000000052e-01 1.862255728899999951e+01
5.302773926000000415e+00 0.000000000000000000e+00 0.000000000000000000e+00 6.196391899999999925e-02 3.853885986999999957e+00 0.000000000000000000e+00 1.964014629999999983e-01 -5.076455420000000052e-01 1.862255728899999951e+01
5.302773926000000415e+00 0.000000000000000000e+00 0.000000000000000000e+00 6.196391899999999925e-02 3.853885986999999957e+00 0.000000000000000000e+00 1.964014629999999983e-01 -5.076455420000000052e-01 1.862255728899999951e+01
5.284117270000000310e+00 0.000000000000000000e+00 0.000000000000000000e+00 5.296800699999999751e-02 3.835480341999999876e+00 0.000000000000000000e+00 3.538902299999999723e-01 2.552268420000000093e-01 1.371199176400000042e+01
5.144420358999999721e+00 0.000000000000000000e+00 0.000000000000000000e+00 -9.759513400000000005e-02 3.673962599999999856e+00 0.000000000000000000e+00 1.896140570000000025e-01 -3.637807089999999799e-01 1.734356070300000141e+01
5.302773926000000415e+00 0.000000000000000000e+00 0.000000000000000000e+00 6.196391899999999925e-02 3.853885986999999957e+00 0.000000000000000000e+00 1.964014629999999983e-01 -5.076455420000000052e-01 1.862255728899999951e+01
5.440823370000000381e+00 0.000000000000000000e+00 0.000000000000000000e+00 6.706624199999999814e-02 3.766428840000000111e+00 0.000000000000000000e+00 -4.634065709999999894e-01 5.157820279999999480e-01 1.782455523100000150e+01
5.302773926000000415e+00 0.000000000000000000e+00 0.000000000000000000e+00 6.196391899999999925e-02 3.853885986999999957e+00 0.000000000000000000e+00 1.964014629999999983e-01 -5.076455420000000052e-01 1.862255728899999951e+01
4.986195666999999609e+00 0.000000000000000000e+00 0.000000000000000000e+00 -8.514914499999999553e-02 3.743787320000000030e+00 0.000000000000000000e+00 4.092820999999999959e-02 3.742609140000000001e-01 1.642873455699999852e+01
5.227987677999999860e+00 0.000000000000000000e+00 0.000000000000000000e+00 1.783055600000000088e-02 3.825861676000000156e+00 0.000000000000000000e+00 1.849203209999999986e-01 -3.286350200000000277e-02 1.429338574199999989e+01
5.367682345000000410e+00 0.000000000000000000e+00 0.000000000000000000e+00 -7.343459999999999788e-04 3.785966252000000143e+00 0.000000000000000000e+00 2.880246140000000121e-01 3.060674039999999874e-01 1.348585079799999953e+01
5.144420358999999721e+00 0.000000000000000000e+00 0.000000000000000000e+00 -9.759513400000000005e-02 3.673962599999999856e+00 0.000000000000000000e+00 1.896140570000000025e-01 -3.637807089999999799e-01 1.734356070300000141e+01
5.302773926000000415e+00 0.000000000000000000e+00 0.000000000000000000e+00 6.196391899999999925e-02 3.853885986999999957e+00 0.000000000000000000e+00 1.964014629999999983e-01 -5.076455420000000052e-01 1.862255728899999951e+01
5.302773926000000415e+00 0.000000000000000000e+00 0.000000000000000000e+00 6.196391899999999925e-02 3.853885986999999957e+00 0.000000000000000000e+00 1.964014629999999983e-01 -5.076455420000000052e-01 1.862255728899999951e+01
5.542804265000000008e+00 0.000000000000000000e+00 0.000000000000000000e+00 4.254137899999999722e-02 3.983544139999999789e+00 0.000000000000000000e+00 -1.033980530000000037e-01 -2.366154480000000060e-01 1.621362115699999862e+01
5.302773926000000415e+00 0.000000000000000000e+00 0.000000000000000000e+00 6.196391899999999925e-02 3.853885986999999957e+00 0.000000000000000000e+00 1.964014629999999983e-01 -5.076455420000000052e-01 1.862255728899999951e+01
5.202974049999999906e+00 0.000000000000000000e+00 0.000000000000000000e+00 8.885609299999999711e-02 3.842069082000000080e+00 0.000000000000000000e+00 -1.751423709999999911e-01 2.272427099999999867e-01 2.002795385800000005e+01
5.312214927000000309e+00 0.000000000000000000e+00 0.000000000000000000e+00 -1.092870090000000044e-01 3.907042215999999790e+00 0.000000000000000000e+00 2.402417759999999902e-01 -2.160926679999999878e-01 1.285320396999999915e+01
5.302773926000000415e+00 0.000000000000000000e+00 0.000000000000000000e+00 6.196391899999999925e-02 3.853885986999999957e+00 0.000000000000000000e+00 1.964014629999999983e-01 -5.076455420000000052e-01 1.862255728899999951e+01
5.302773926000000415e+00 0.000000000000000000e+00 0.000000000000000000e+00 6.196391899999999925e-02 3.853885986999999957e+00 0.000000000000000000e+00 1.964014629999999983e-01 -5.076455420000000052e-01 1.862255728899999951e+01
5.302773926000000415e+00 0.000000000000000000e+00 0.000000000000000000e+00 6.196391899999999925e-02 3.853885986999999957e+00 0.000000000000000000e+00 1.964014629999999983e-01 -5.076455420000000052e-01 1.862255728899999951e+01
5.249169667000000317e+00 0.000000000000000000e+00 0.000000000000000000e+00 -8.632447999999999164e-03 3.864248164999999791e+00 0.000000000000000000e+00 -3.242683679999999735e-01 -1.083389800000000014e-01 1.682294399199999901e+01
5.302773926000000415e+00 0.000000000000000000e+00 0.000000000000000000e+00 6.196391899999999925e-02 3.853885986999999957e+00 0.000000000000000000e+00 1.964014629999999983e-01 -5.076455420000000052e-01 1.862255728899999951e+01
5.302773926000000415e+00 0.000000000000000000e+00 0.000000000000000000e+00 6.196391899999999925e-02 3.853885986999999957e+00 0.000000000000000000e+00 1.964014629999999983e-01 -5.076455420000000052e-01 1.862255728899999951e+01
5.209225602000000066e+00 0.000000000000000000e+00 0.000000000000000000e+00 -7.860815999999999637e-03 3.578680797000000080e+00 0.000000000000000000e+00 -4.488966750000000228e-01 -4.620972769999999730e-01 1.729959808399999943e+01
5.302773926000000415e+00 0.000000000000000000e+00 0.000000000000000000e+00 6.196391899999999925e-02 3.853885986999999957e+00 0.000000000000000000e+00 1.964014629999999983e-01 -5.076455420000000052e-01 1.862255728899999951e+01
5.289084403999999573e+00 0.000000000000000000e+00 0.000000000000000000e+00 1.906038900000000050e-02 3.737240633999999950e+00 0.000000000000000000e+00 -1.824784700000000107e-02 -5.884051700000000190e-02 1.799001523800000157e+01
5.144420358999999721e+00 0.000000000000000000e+00 0.000000000000000000e+00 -9.759513400000000005e-02 3.673962599999999856e+00 0.000000000000000000e+00 1.896140570000000025e-01 -3.637807089999999799e-01 1.734356070300000141e+01
5.024473752999999654e+00 0.000000000000000000e+00 0.000000000000000000e+00 -4.672153300000000259e-02 3.673445609999999917e+00 0.000000000000000000e+00 -3.844466750000000155e-01 -5.647632600000000030e-02 1.506570300899999992e+01
5.302773926000000415e+00 0.000000000000000000e+00 0.000000000000000000e+00 6.196391899999999925e-02 3.853885986999999957e+00 0.000000000000000000e+00 1.964014629999999983e-01 -5.076455420000000052e-01 1.862255728899999951e+01
4.965296082000000055e+00 0.000000000000000000e+00 0.000000000000000000e+00 -1.440701800000000060e-02 3.509848094000000085e+00 0.000000000000000000e+00 2.134123069999999955e-01 -2.225742520000000002e-01 1.418822025200000070e+01
5.249169667000000317e+00 0.000000000000000000e+00 0.000000000000000000e+00 -8.632447999999999164e-03 3.864248164999999791e+00 0.000000000000000000e+00 -3.242683679999999735e-01 -1.083389800000000014e-01 1.682294399199999901e+01
5.285884594999999742e+00 0.000000000000000000e+00 0.000000000000000000e+00 -1.027818599999999992e-02 3.652374130000000108e+00 0.000000000000000000e+00 1.408299130000000010e-01 -3.726748209999999895e-01 1.534298378899999982e+01
5.302773926000000415e+00 0.000000000000000000e+00 0.000000000000000000e+00 6.196391899999999925e-02 3.853885986999999957e+00 0.000000000000000000e+00 1.964014629999999983e-01 -5.076455420000000052e-01 1.862255728899999951e+01
5.302773926000000415e+00 0.000000000000000000e+00 0.000000000000000000e+00 6.196391899999999925e-02 3.853885986999999957e+00 0.000000000000000000e+00 1.964014629999999983e-01 -5.076455420000000052e-01 1.862255728899999951e+01
5.488985526999999642e+00 0.000000000000000000e+00 0.000000000000000000e+00 6.964102799999999371e-02 3.791635519999999815e+00 0.000000000000000000e+00 -4.352157899999999913e-01 -1.731863349999999968e-01 1.793543815600000002e+01
5.302773926000000415e+00 0.000000000000000000e+00 0.000000000000000000e+00 6.196391899999999925e-02 3.853885986999999957e+00 0.000000000000000000e+00 1.964014629999999983e-01 -5.076455420000000052e-01 1.862255728899999951e+01
5.320172291999999636e+00 0.000000000000000000e+00 0.000000000000000000e+00 1.031907399999999926e-02 3.702285144999999833e+00 0.000000000000000000e+00 -1.634843260000000131e-01 4.684346229999999944e-01 1.687087792000000164e+01
5.159531169000000084e+00 0.000000000000000000e+00 0.000000000000000000e+00 3.473051500000000347e-02 3.815596699999999952e+00 0.000000000000000000e+00 -4.101560329999999754e-01 -1.686202960000000028e-01 1.980207499500000168e+01
5.302773926000000415e+00 0.000000000000000000e+00 0.000000000000000000e+00 6.196391899999999925e-02 3.853885986999999957e+00 0.000000000000000000e+00 1.964014629999999983e-01 -5.076455420000000052e-01 1.862255728899999951e+01
5.267833030000000250e+00 0.000000000000000000e+00 0.000000000000000000e+00 -5.330430500000000321e-02 3.669272686999999866e+00 0.000000000000000000e+00 -2.393919069999999871e-01 2.736548950000000091e-01 1.502528876300000071e+01
5.159531169000000084e+00 0.000000000000000000e+00 0.000000000000000000e+00 3.473051500000000347e-02 3.815596699999999952e+00 0.000000000000000000e+00 -4.101560329999999754e-01 -1.686202960000000028e-01 1.980207499500000168e+01
5.377001866999999713e+00 0.000000000000000000e+00 0.000000000000000000e+00 6.288967099999999422e-02 3.933155735000000153e+00 0.000000000000000000e+00 -2.126446569999999869e-01 1.905427670000000018e-01 1.910021833800000124e+01
5.159531169000000084e+00 0.000000000000000000e+00 0.000000000000000000e+00 3.473051500000000347e-02 3.815596699999999952e+00 0.000000000000000000e+00 -4.101560329999999754e-01 -1.686202960000000028e-01 1.980207499500000168e+01
5.159531169000000084e+00 0.000000000000000000e+00 0.000000000000000000e+00 3.473051500000000347e-02 3.815596699999999952e+00 0.000000000000000000e+00 -4.101560329999999754e-01 -1.686202960000000028e-01 1.980207499500000168e+01
5.101018734000000165e+00 0.000000000000000000e+00 0.000000000000000000e+00 -4.550430099999999700e-02 3.579737567000000009e+00 0.000000000000000000e+00 -3.653307789999999944e-01 3.000220000000000109e-01 1.952891268500000166e+01
5.331240443999999634e+00 0.000000000000000000e+00 0.000000000000000000e+00 1.098191359999999978e-01 3.792496229000000163e+00 0.000000000000000000e+00 2.792441430000000002e-01 1.081575409999999959e-01 1.463472052400000045e+01
5.302773926000000415e+00 0.000000000000000000e+00 0.000000000000000000e+00 6.196391899999999925e-02 3.853885986999999957e+00 0.000000000000000000e+00 1.964014629999999983e-01 -5.076455420000000052e-01 1.862255728899999951e+01
5.415952915000000090e+00 0.000000000000000000e+00 0.000000000000000000e+00 1.525038400000000051e-02 3.818719634999999890e+00 0.000000000000000000e+00 -3.874972709999999765e-01 -1.896672420000000137e-01 1.340875944799999964e+01
5.302773926000000415e+00 0.000000000000000000e+00 0.000000000000000000e+00 6.196391899999999925e-02 3.853885986999999957e+00 0.000000000000000000e+00 1.964014629999999983e-01 -5.076455420000000052e-01 1.862255728899999951e+01
5.331240443999999634e+00 0.000000000000000000e+00 0.000000000000000000e+00 1.098191359999999978e-01 3.792496229000000163e+00 0.000000000000000000e+00 2.792441430000000002e-01 1.081575409999999959e-01 1.463472052400000045e+01
5.302773926000000415e+00 0.000000000000000000e+00 0.000000000000000000e+00 6.196391899999999925e-02 3.853885986999999957e+00 0.000000000000000000e+00 1.964014629999999983e-01 -5.076455420000000052e-01 1.862255728899999951e+01
5.302773926000000415e+00 0.000000000000000000e+00 0.000000000000000000e+00 6.196391899999999925e-02 3.853885986999999957e+00 0.000000000000000000e+00 1.964014629999999983e-01 -5.076455420000000052e-01 1.862255728899999951e+01
4.934815315999999896e+00 0.000000000000000000e+00 0.000000000000000000e+00 -7.492651499999999909e-02 3.527041866999999886e+00 0.000000000000000000e+00 -2.685415369999999968e-01 -2.663083509999999987e-01 1.493053158999999930e+01
5.302773926000000415e+00 0.000000000000000000e+00 0.000000000000000000e+00 6.196391899999999925e-02 3.853885986999999957e+00 0.000000000000000000e+00 1.964014629999999983e-01 -5.076455420000000052e-01 1.862255728899999951e+01
5.302773926000000415e+00 0.000000000000000000e+00 0.000000000000000000e+00 6.196391899999999925e-02 3.853885986999999957e+00 0.000000000000000000e+00 1.964014629999999983e-01 -5.076455420000000052e-01 1.862255728899999951e+01
5.542804265000000008e+00 0.000000000000000000e+00 0.000000000000000000e+00 4.254137899999999722e-02 3.983544139999999789e+00 0.000000000000000000e+00 -1.033980530000000037e-01 -2.366154480000000060e-01 1.621362115699999862e+01
5.302773926000000415e+00 0.000000000000000000e+00 0.000000000000000000e+00 6.196391899999999925e-02 3.853885986999999957e+00 0.000000000000000000e+00 1.964014629999999983e-01 -5.076455420000000052e-01 1.862255728899999951e+01
5.377001866999999713e+00 0.000000000000000000e+00 0.000000000000000000e+00 6.288967099999999422e-02 3.933155735000000153e+00 0.000000000000000000e+00 -2.126446569999999869e-01 1.905427670000000018e-01 1.910021833800000124e+01
5.159531169000000084e+00 0.000000000000000000e+00 0.000000000000000000e+00 3.473051500000000347e-02 3.815596699999999952e+00 0.000000000000000000e+00 -4.101560329999999754e-01 -1.686202960000000028e-01 1.980207499500000168e+01
5.302773926000000415e+00 0.000000000000000000e+00 0.000000000000000000e+00 6.196391899999999925e-02 3.853885986999999957e+00 0.000000000000000000e+00 1.964014629999999983e-01 -5.076455420000000052e-01 1.862255728899999951e+01
5.302773926000000415e+00 0.000000000000000000e+00 0.000000000000000000e+00 6.196391899999999925e-02 3.853885986999999957e+00 0.000000000000000000e+00 1.964014629999999983e-01 -5.076455420000000052e-01 1.862255728899999951e+01
5.289084403999999573e+00 0.000000000000000000e+00 0.000000000000000000e+00 1.906038900000000050e-02 3.737240633999999950e+00 0.000000000000000000e+00 -1.824784700000000107e-02 -5.884051700000000190e-02 1.799001523800000157e+01
5.024473752999999654e+00 0.000000000000000000e+00 0.000000000000000000e+00 -4.672153300000000259e-02 3.673445609999999917e+00 0.000000000000000000e+00 -3.844466750000000155e-01 -5.647632600000000030e-02 1.506570300899999992e+01
5.159531169000000084e+00 0.000000000000000000e+00 0.000000000000000000e+00 3.473051500000000347e-02 3.815596699999999952e+00 0.000000000000000000e+00 -4.101560329999999754e-01 -1.686202960000000028e-01 1.980207499500000168e+01
5.024473752999999654e+00 0.000000000000000000e+00 0.000000000000000000e+00 -4.672153300000000259e-02 3.673445609999999917e+00 0.000000000000000000e+00 -3.844466750000000155e-01 -5.647632600000000030e-02 1.506570300899999992e+01
5.144420358999999721e+00 0.000000000000000000e+00 0.000000000000000000e+00 -9.759513400000000005e-02 3.673962599999999856e+00 0.000000000000000000e+00 1.896140570000000025e-01 -3.637807089999999799e-01 1.734356070300000141e+01
5.302773926000000415e+00 0.000000000000000000e+00 0.000000000000000000e+00 6.196391899999999925e-02 3.853885986999999957e+00 0.000000000000000000e+00 1.964014629999999983e-01 -5.076455420000000052e-01 1.862255728899999951e+01
4.877492764000000314e+00 0.000000000000000000e+00 0.000000000000000000e+00 -5.353657400000000344e-02 3.663720765999999962e+00 0.000000000000000000e+00 3.372745109999999991e-01 -4.125875019999999949e-01 1.768324745900000039e+01
5.302773926000000415e+00 0.000000000000000000e+00 0.000000000000000000e+00 6.196391899999999925e-02 3.853885986999999957e+00 0.000000000000000000e+00 1.964014629999999983e-01 -5.076455420000000052e-01 1.862255728899999951e+01
5.302773926000000415e+00 0.000000000000000000e+00 0.000000000000000000e+00 6.196391899999999925e-02 3.853885986999999957e+00 0.000000000000000000e+00 1.964014629999999983e-01 -5.076455420000000052e-01 1.862255728899999951e+01
5.302773926000000415e+00 0.000000000000000000e+00 0.000000000000000000e+00 6.196391899999999925e-02 3.853885986999999957e+00 0.000000000000000000e+00 1.964014629999999983e-01 -5.076455420000000052e-01 1.862255728899999951e+01
5.302773926000000415e+00 0.000000000000000000e+00 0.000000000000000000e+00 6.196391899999999925e-02 3.853885986999999957e+00 0.000000000000000000e+00 1.964014629999999983e-01 -5.076455420000000052e-01 1.862255728899999951e+01
5.144420358999999721e+00 0.000000000000000000e+00 0.000000000000000000e+00 -9.759513400000000005e-02 3.673962599999999856e+00 0.000000000000000000e+00 1.896140570000000025e-01 -3.637807089999999799e-01 1.734356070300000141e+01
5.302773926000000415e+00 0.000000000000000000e+00 0.000000000000000000e+00 6.196391899999999925e-02 3.853885986999999957e+00 0.000000000000000000e+00 1.964014629999999983e-01 -5.076455420000000052e-01 1.862255728899999951e+01
5.159531169000000084e+00 0.000000000000000000e+00 0.000000000000000000e+00 3.473051500000000347e-02 3.815596699999999952e+00 0.000000000000000000e+00 -4.101560329999999754e-01 -1.686202960000000028e-01 1.980207499500000168e+01
5.202974049999999906e+00 0.000000000000000000e+00 0.000000000000000000e+00 8.885609299999999711e-02 3.842069082000000080e+00 0.000000000000000000e+00 -1.751423709999999911e-01 2.272427099999999867e-01 2.002795385800000005e+01
5.129611004000000030e+00 0.000000000000000000e+00 0.000000000000000000e+00 1.006375590000000014e-01 3.562726724000000011e+00 0.000000000000000000e+00 2.578773870000000135e-01 -1.826021929999999960e-01 1.621057155700000152e+01
5.302773926000000415e+00 0.000000000000000000e+00 0.000000000000000000e+00 6.196391899999999925e-02 3.853885986999999957e+00 0.000000000000000000e+00 1.964014629999999983e-01 -5.076455420000000052e-01 1.862255728899999951e+01
5.289084403999999573e+00 0.000000000000000000e+00 0.000000000000000000e+00 1.906038900000000050e-02 3.737240633999999950e+00 0.000000000000000000e+00 -1.824784700000000107e-02 -5.884051700000000190e-02 1.799001523800000157e+01
5.302773926000000415e+00 0.000000000000000000e+00 0.000000000000000000e+00 6.196391899999999925e-02 3.853885986999999957e+00 0.000000000000000000e+00 1.964014629999999983e-01 -5.076455420000000052e-01 1.862255728899999951e+01
5.246486983999999687e+00 0.000000000000000000e+00 0.000000000000000000e+00 -8.841053999999999580e-02 3.732540075000000179e+00 0.000000000000000000e+00 -7.432127700000000503e-02 -1.842290020000000028e-01 1.384663851800000067e+01
5.159531169000000084e+00 0.000000000000000000e+00 0.000000000000000000e+00 3.473051500000000347e-02 3.815596699999999952e+00 0.000000000000000000e+00 -4.101560329999999754e-01 -1.686202960000000028e-01 1.980207499500000168e+01
5.302773926000000415e+00 0.000000000000000000e+00 0.000000000000000000e+00 6.196391899999999925e-02 3.853885986999999957e+00 0.000000000000000000e+00 1.964014629999999983e-01 -5.076455420000000052e-01 1.862255728899999951e+01
5.051084781000000135e+00 0.000000000000000000e+00 0.000000000000000000e+00 -1.022039909999999940e-01 3.641135330000000003e+00 0.000000000000000000e+00 5.198432710000000512e-01 5.773673599999999684e-02 1.771845710099999849e+01
4.901549881000000219e+00 0.000000000000000000e+00 0.000000000000000000e+00 3.894246600000000197e-02 3.510257119999999897e+00 0.000000000000000000e+00 -1.123418350000000010e-01 -3.455296849999999753e-01 1.598572197500000058e+01
5.212332669000000251e+00 0.000000000000000000e+00 0.000000000000000000e+00 -7.550760800000000383e-02 3.735573473000000089e+00 0.000000000000000000e+00 1.870829129999999896e-01 2.607546849999999861e-01 1.368431515500000017e+01
5.302773926000000415e+00 0.000000000000000000e+00 0.000000000000000000e+00 6.196391899999999925e-02 3.853885986999999957e+00 0.000000000000000000e+00 1.964014629999999983e-01 -5.076455420000000052e-01 1.862255728899999951e+01
5.302773926000000415e+00 0.000000000000000000e+00 0.000000000000000000e+00 6.196391899999999925e-02 3.853885986999999957e+00 0.000000000000000000e+00 1.964014629999999983e-01 -5.076455420000000052e-01 1.862255728899999951e+01
5.159531169000000084e+00 0.000000000000000000e+00 0.000000000000000000e+00 3.473051500000000347e-02 3.815596699999999952e+00 0.000000000000000000e+00 -4.101560329999999754e-01 -1.686202960000000028e-01 1.980207499500000168e+01
