3.720218877000000202e+00 0.000000000000000000e+00 0.000000000000000000e+00 4.435134000000000298e-02 3.674299120000000141e+00 0.000000000000000000e+00 3.179533219999999827e-01 2.188304389999999877e-01 1.753321282799999992e+01
3.967147729000000123e+00 0.000000000000000000e+00 0.000000000000000000e+00 7.982098999999999445e-02 3.901874961999999947e+00 0.000000000000000000e+00 -2.714626210000000150e-01 2.114979399999999954e-01 1.889682627999999909e+01
3.459815191000000123e+00 0.000000000000000000e+00 0.000000000000000000e+00 1.042054499999999981e-02 3.472705004999999900e+00 0.000000000000000000e+00 -4.160813400000000217e-01 3.823200290000000057e-01 1.708380734500000031e+01
3.653338816000000211e+00 0.000000000000000000e+00 0.000000000000000000e+00 -9.474340000000000539e-02 3.565565315000000179e+00 0.000000000000000000e+00 -5.224590449999999553e-01 -1.910098679999999993e-01 1.779552931499999957e+01
3.609551129999999830e+00 0.000000000000000000e+00 0.000000000000000000e+00 2.062972000000000156e-03 3.636948470000000100e+00 0.000000000000000000e+00 4.079073739999999892e-01 -1.545499049999999874e-01 2.035336810200000102e+01
3.709548476999999789e+00 0.000000000000000000e+00 0.000000000000000000e+00 -5.885657100000000336e-02 3.763997488999999863e+00 0.000000000000000000e+00 -4.116951440000000129e-01 -3.710538000000000031e-02 1.430915597399999939e+01
3.802238286000000134e+00 0.000000000000000000e+00 0.000000000000000000e+00 -2.970743500000000079e-02 3.695254455000000160e+00 0.000000000000000000e+00 -3.078612909999999814e-01 -1.199138389999999943e-01 1.441692580499999998e+01
3.580740344000000075e+00 0.000000000000000000e+00 0.000000000000000000e+00 1.019544160000000060e-01 3.557989742000000177e+00 0.000000000000000000e+00 -2.847097920000000171e-01 1.451173990000000080e-01 1.431934878200000050e+01
3.811279010999999883e+00 0.000000000000000000e+00 0.000000000000000000e+00 9.947517599999999849e-02 3.766100020000000104e+00 0.000000000000000000e+00 3.513879400000000097e-01 -1.831817679999999948e-01 1.400681651000000016e+01
3.457903953000000197e+00 0.000000000000000000e+00 0.000000000000000000e+00 5.861317900000000136e-02 3.518178725999999923e+00 0.000000000000000000e+00 -4.374997339999999735e-01 5.807477999999999946e-02 1.635517610300000158e+01
3.546821496000000185e+00 0.000000000000000000e+00 0.000000000000000000e+00 6.628423799999999533e-02 3.525851612999999940e+00 0.000000000000000000e+00 1.134363169999999948e-01 4.350872689999999987e-01 1.890109640300000038e+01
3.751786783000000014e+00 0.000000000000000000e+00 0.000000000000000000e+00 -7.805539000000000227e-02 3.741615041000000197e+00 0.000000000000000000e+00 -3.627382390000000179e-01 5.194967100000000282e-02 1.410902564400000081e+01
3.820805234999999911e+00 0.000000000000000000e+00 0.000000000000000000e+00 9.632571700000000514e-02 3.688489226999999815e+00 0.000000000000000000e+00 -5.403064650000000135e-01 -2.788256239999999941e-01 2.070670762299999978e+01
3.814682877000000083e+00 0.000000000000000000e+00 0.000000000000000000e+00 -1.086304329999999985e-01 3.883869402000000193e+00 0.000000000000000000e+00 -6.610752799999999874e-02 -1.502626169999999872e-01 1.458162884000000048e+01
3.758329287000000019e+00 0.000000000000000000e+00 0.000000000000000000e+00 -9.567507399999999884e-02 3.691357643999999993e+00 0.000000000000000000e+00 3.140046859999999773e-01 7.931231199999999593e-02 1.738970928000000171e+01
3.437896046000000094e+00 0.000000000000000000e+00 0.000000000000000000e+00 -9.108483000000000551e-03 3.483632903000000169e+00 0.000000000000000000e+00 -4.414587070000000057e-01 -3.121108349999999754e-01 1.792180919200000133e+01
3.457903953000000197e+00 0.000000000000000000e+00 0.000000000000000000e+00 5.861317900000000136e-02 3.518178725999999923e+00 0.000000000000000000e+00 -4.374997339999999735e-01 5.807477999999999946e-02 1.635517610300000158e+01
3.709548476999999789e+00 0.000000000000000000e+00 0.000000000000000000e+00 -5.885657100000000336e-02 3.763997488999999863e+00 0.000000000000000000e+00 -4.116951440000000129e-01 -3.710538000000000031e-02 1.430915597399999939e+01
3.914877531000000133e+00 0.000000000000000000e+00 0.000000000000000000e+00 8.772338000000000358e-02 3.940055478000000111e+00 0.000000000000000000e+00 -1.343775510000000117e-01 4.026013000000000161e-03 1.566659485599999968e+01
3.499572370000000099e+00 0.000000000000000000e+00 0.000000000000000000e+00 -4.515797700000000192e-02 3.513304422000000038e+00 0.000000000000000000e+00 1.960220480000000043e-01 2.515314180000000066e-01 1.861013765899999939e+01
3.921546130999999935e+00 0.000000000000000000e+00 0.000000000000000000e+00 -2.129505500000000023e-02 3.877408818000000146e+00 0.000000000000000000e+00 -1.002281799999999931e-02 3.508179869999999978e-01 1.315941517699999963e+01
3.513875810000000044e+00 0.000000000000000000e+00 0.000000000000000000e+00 3.230924300000000138e-02 3.548184958999999861e+00 0.000000000000000000e+00 -4.941046390000000121e-01 -1.588832619999999973e-01 1.695132901599999897e+01
3.906567889000000182e+00 0.000000000000000000e+00 0.000000000000000000e+00 -8.451846500000000095e-02 3.953293241999999985e+00 0.000000000000000000e+00 -2.507341200000000048e-01 -1.759311010000000064e-01 2.024304702999999961e+01
