3.178319999999999812e+00 3.060400000000000009e+00 5.793079999999999785e+00 2.342439999999999856e+00 2.633789999999999853e+00 1.502480000000000038e+00 4.206199999999999939e-01 3.306500000000000217e+00 1.749728999999999957e+01 3.019169999999999909e+00 1.657429999999999959e+00 7.942140000000000200e+00 9.431100000000000039e-01 3.178430000000000089e+00 7.992689999999999628e+00 2.334200000000000053e+00 1.209920000000000107e+00 1.744359999999999999e+01 3.070339999999999847e+00 1.848899999999999988e+00 3.651489999999999903e+00 5.975200000000000511e-01 9.901499999999999746e-01 9.802300000000000679e+00 1.036459999999999937e+00 1.184050000000000047e+00 5.884220000000000006e+00 2.447960000000000136e+00 2.879480000000000040e+00 1.000329999999999941e+01 1.312359999999999971e+00 1.641700000000000104e-01 3.465100000000000069e+00 3.577119999999999855e+00 1.109029999999999960e+00 1.444550000000000001e+00
3.394130000000000091e+00 1.755149999999999988e+00 2.804069999999999840e+00 7.550099999999999589e-01 1.882889999999999953e+00 8.955209999999999226e+00 5.893399999999999750e-01 2.383059999999999956e+00 5.833840000000000359e+00 1.303760000000000030e+00 1.850190000000000001e+00 3.776400000000000201e+00 2.393380000000000063e+00 2.529710000000000125e+00 7.104790000000000383e+00 2.148789999999999978e+00 4.628499999999999837e-01 5.925679999999999836e+00 1.044640000000000013e+00 1.450220000000000065e+00 7.740099999999999758e-01 1.187259999999999982e+00 3.715609999999999857e+00 2.412080000000000002e+00 2.809060000000000112e+00 3.693199999999999816e-01 8.681330000000000879e+00 3.328050000000000175e+00 3.518460000000000143e+00 8.343099999999999961e-01 3.936399999999999899e-01 3.602799999999999891e-01 7.320730000000000182e+00 1.396300000000000041e-01 3.814760000000000151e+00 4.420670000000000321e+00
3.277579999999999938e+00 2.089399999999999868e-01 6.780759999999999899e+00 8.862000000000000433e-02 3.284320000000000128e+00 3.658999999999999753e-02 3.325530000000000097e+00 1.788759999999999906e+00 5.124590000000000423e+00 3.316860000000000142e+00 1.725719999999999921e+00 1.793500000000000094e+00 1.274480000000000057e+00 2.156709999999999905e+00 1.706460999999999828e+01 -1.246000000000000024e-01 1.922449999999999992e+00 8.430630000000000734e+00 1.628519999999999968e+00 2.603400000000000158e-01 8.439349999999999241e+00 1.536759999999999904e+00 2.042299999999999949e-01 5.134619999999999962e+00 1.408570000000000100e+00 1.784859999999999891e+00 6.877550000000000274e+00 1.692369999999999930e+00 6.862000000000000044e-02 1.792259999999999964e+00 1.720229999999999926e+00 1.811450000000000005e+00 3.448230000000000128e+00 -4.099999999999999912e-04 1.937000000000000111e-01 3.355830000000000091e+00
5.539999999999999786e-03 5.722199999999999509e-01 3.165810000000000013e+00 2.203590000000000160e+00 2.454089999999999883e+00 1.554819999999999958e+01 2.437900000000000067e-01 3.210449999999999804e+00 7.767109999999999737e+00 1.274790000000000090e+00 2.545679999999999943e+00 2.316190000000000193e+00 1.473700000000000010e+00 2.575489999999999835e+00 9.532679999999999154e+00 1.962500000000000078e-01 2.788559999999999928e+00 5.831290000000000084e+00 3.833599999999999786e-01 1.423750000000000071e+00 1.719020000000000081e+01 2.283900000000000041e+00 1.119029999999999969e+00 7.769999999999999574e+00 2.559320000000000039e+00 3.110149999999999970e+00 4.888700000000000268e-01 3.292689999999999895e+00 8.514399999999999746e-01 9.989209999999999923e+00 2.340269999999999850e+00 8.555899999999999617e-01 5.599249999999999616e+00 2.396510000000000140e+00 2.510200000000000209e+00 4.149130000000000429e+00
6.272999999999999687e-01 1.450779999999999959e+00 1.395229999999999970e+00 6.902399999999999647e-01 3.024800000000000266e-01 9.396580000000000155e+00 8.574399999999999800e-01 1.251209999999999933e+00 5.865470000000000184e+00 2.695429999999999993e+00 2.996739999999999959e+00 5.724879999999999747e+00 2.929840000000000000e+00 1.367779999999999996e+00 7.573579999999999757e+00 2.153880000000000017e+00 3.313579999999999970e+00 1.865289999999999893e+00 2.114269999999999872e+00 2.498120000000000118e+00 9.646269999999999456e+00 2.412799999999999834e+00 7.563800000000000523e-01 3.932519999999999794e+00 6.194399999999999906e-01 3.173840000000000217e+00 3.514790000000000081e+00 3.057449999999999779e+00 1.341180000000000039e+00 1.965419999999999945e+01 9.072500000000000009e-01 3.005370000000000097e+00 7.806479999999999642e+00 9.283500000000000085e-01 3.267040000000000166e+00 2.009309999999999974e+01
7.667000000000000204e-02 2.124039999999999928e+00 4.237500000000000155e-01 3.141030000000000211e+00 2.233849999999999891e+00 8.429940000000000211e+00 1.352829999999999977e+00 2.680689999999999795e+00 1.258019999999999960e+01 1.923939999999999984e+00 1.090969999999999995e+00 4.833099999999999952e+00 1.570990000000000109e+00 2.660449999999999982e+00 6.568229999999999791e+00 2.831170000000000186e+00 2.304100000000000037e-01 1.268849999999999945e+01 -1.607000000000000095e-02 7.234099999999999975e-01 6.075870000000000104e+00 1.269339999999999913e+00 6.683900000000000396e-01 8.379120000000000346e+00 1.828719999999999901e+00 3.516799999999999926e-01 2.416999999999999982e-01 2.777700000000000169e-01 2.730859999999999843e+00 4.545309999999999739e+00 1.571430000000000105e+00 2.586580000000000101e+00 1.002069999999999972e+01 -2.435999999999999971e-02 5.121499999999999941e-01 1.018950000000000067e+01
1.618120000000000003e+00 1.141059999999999963e+00 1.551120000000000054e+00 1.851020000000000110e+00 3.034990000000000077e+00 3.970289999999999875e+00 3.444830000000000059e+00 3.266859999999999875e+00 1.512340000000000018e+00 2.379000000000000004e-01 1.472380000000000022e+00 7.730450000000000266e+00 1.333550000000000013e+00 3.084550000000000125e+00 1.362289999999999957e+01 1.789060000000000095e+00 1.068699999999999983e+00 5.569549999999999557e+00 2.003190000000000026e+00 3.492280000000000051e+00 7.744349999999999845e+00 3.256040000000000045e+00 1.209529999999999994e+00 1.087870000000000026e+01 6.250000000000000347e-03 1.444849999999999968e+00 3.941930000000000156e+00 3.269870000000000054e+00 9.317100000000000382e-01 1.438760000000000083e+01 1.853550000000000031e+00 1.726450000000000040e+00 9.357359999999999900e+00 1.130199999999999955e-01 3.302179999999999893e+00 5.582360000000000433e+00
2.301969999999999850e+00 3.135100000000000109e-01 1.118169999999999931e+01 6.002600000000000158e-01 3.453129999999999811e+00 1.267050000000000054e+01 2.037980000000000125e+00 2.755949999999999900e+00 6.216630000000000322e+00 1.819560000000000066e+00 2.990180000000000060e+00 8.910799999999999832e-01 1.557900000000000118e-01 1.902300000000000102e+00 9.930320000000000036e+00 5.647199999999999998e-01 8.887800000000000145e-01 5.066980000000000040e+00 1.997849999999999904e+00 9.425099999999999589e-01 2.929079999999999906e+00 1.993079999999999963e+00 1.745910000000000073e+00 1.317549999999999955e+01 1.456949999999999967e+00 8.374599999999999822e-01 7.603309999999999569e+00 9.511999999999999622e-02 1.116360000000000019e+00 8.622199999999999864e-01 1.084999999999999992e-01 2.588569999999999816e+00 3.056999999999999940e+00 1.753300000000000136e-01 2.623839999999999950e+00 7.154519999999999769e+00
1.727219999999999978e+00 2.131709999999999994e+00 4.212270000000000181e+00 7.757199999999999651e-01 2.141789999999999861e+00 1.189189999999999969e+01 2.296419999999999906e+00 2.557110000000000216e+00 1.000660000000000061e+01 1.050959999999999894e+00 2.475119999999999987e+00 7.620099999999999874e+00 2.596989999999999910e+00 9.511199999999999655e-01 1.184520000000000017e+01 2.798579999999999846e+00 1.519800000000000040e-01 8.032170000000000698e+00 1.748119999999999896e+00 3.584189999999999987e+00 2.041729999999999823e+00 1.565190000000000081e+00 1.375990000000000046e+00 9.485299999999999843e-01 1.407559999999999922e+00 5.135199999999999765e-01 5.997609999999999886e+00 2.709490000000000176e+00 2.853070000000000217e+00 1.332290000000000063e+01 3.371690000000000076e+00 2.477430000000000021e+00 5.809249999999999581e+00 3.577850000000000197e+00 2.649400000000000088e-01 3.834849999999999870e+00
3.804000000000000159e-01 2.976840000000000153e+00 1.506029999999999980e+01 2.314750000000000085e+00 2.154150000000000009e+00 1.013940000000000019e+01 3.204000000000000181e+00 1.315940000000000110e+00 2.907869999999999955e+00 2.660439999999999916e+00 3.063810000000000144e+00 1.077280000000000015e+00 9.039399999999999658e-01 1.185410000000000075e+00 9.069500000000000339e-01 5.848700000000000010e-01 2.626320000000000210e+00 7.668050000000000033e+00 2.110079999999999956e+00 1.776850000000000041e+00 5.374609999999999665e+00 4.108499999999999930e-01 4.670000000000000262e-01 1.000559999999999938e+01 1.508210000000000051e+00 3.077929999999999833e+00 3.194300000000000139e+00 4.838899999999999868e-01 8.003200000000000314e-01 5.560570000000000235e+00 2.105630000000000113e+00 7.576199999999999601e-01 7.845340000000000202e+00 2.182729999999999837e+00 1.199899999999999967e+00 1.533300000000000018e+01
4.950300000000000256e-01 2.263699999999999879e-01 1.304419999999999913e+00 2.941300000000000026e+00 2.183149999999999924e+00 9.981790000000000163e+00 3.558489999999999931e+00 2.995039999999999925e+00 1.820670000000000144e+01 2.235930000000000195e+00 1.076210000000000111e+00 5.140699999999999825e+00 1.483740000000000059e+00 1.407650000000000068e+00 7.730220000000000091e+00 3.391939999999999955e+00 3.427039999999999864e+00 8.027169999999999916e+00 2.336699999999999999e+00 2.033659999999999801e+00 1.169410000000000061e+00 8.650700000000000056e-01 4.619400000000000173e-01 1.018859999999999921e+01 1.508399999999999963e+00 1.681349999999999900e+00 1.799940000000000140e+01 5.177699999999999525e-01 2.662840000000000096e+00 5.760340000000000238e+00 5.804200000000000470e-01 1.759630000000000027e+00 3.162469999999999892e+00 2.312370000000000037e+00 3.375220000000000109e+00 3.181659999999999933e+00
-7.596999999999999587e-02 3.422260000000000080e+00 1.155560000000000009e+01 2.844700000000000006e-01 3.093300000000000161e+00 7.883999999999999897e-01 1.059379999999999988e+00 3.482070000000000221e+00 9.439159999999999329e+00 3.128839999999999844e+00 1.395899999999999919e+00 8.830740000000000478e+00 1.521109999999999962e+00 3.459109999999999907e+00 1.306380000000000052e+01 2.287819999999999965e+00 2.989640000000000075e+00 2.792400000000000215e+00 1.554300000000000015e+00 1.468920000000000003e+00 7.269309999999999938e+00 5.321099999999999719e-01 1.439810000000000034e+00 2.634570000000000078e+00 1.778410000000000046e+00 1.187110000000000110e+00 5.315269999999999939e+00 -1.539099999999999913e-01 1.603709999999999969e+00 1.286679999999999957e+01 2.408119999999999816e+00 1.331599999999999895e+00 6.707300000000000484e-01 1.682309999999999972e+00 1.656549999999999967e+00 1.080610000000000070e+01
2.812559999999999949e+00 1.422299999999999953e-01 6.258160000000000167e+00 2.406839999999999868e+00 2.672750000000000181e+00 3.909009999999999874e+00 5.470399999999999707e-01 9.350699999999999568e-01 3.465289999999999981e+00 3.284209999999999852e+00 1.724409999999999998e+00 7.897429999999999950e+00 8.412399999999999878e-01 2.536029999999999784e+00 1.847159999999999913e+00 -9.631000000000000671e-02 -1.157099999999999934e-01 9.305619999999999337e+00 2.970209999999999795e+00 2.604379999999999917e+00 3.237999999999999906e-02 1.632530000000000037e+00 8.316400000000000459e-01 8.120839999999999392e+00 1.114149999999999974e+00 7.062699999999999534e-01 1.967099999999999937e+01 9.653300000000000214e-01 2.067330000000000112e+00 6.301759999999999806e+00 2.945580000000000087e+00 1.099890000000000034e+00 1.768580000000000041e+00 1.937599999999999989e+00 2.195749999999999869e+00 9.843609999999999971e+00
9.356799999999999562e-01 1.046799999999999953e+00 3.397530000000000161e+00 1.534920000000000062e+00 -1.190599999999999992e-01 1.198070000000000057e+01 2.649919999999999831e+00 3.157919999999999838e+00 7.019239999999999924e+00 3.040439999999999809e+00 1.029069999999999929e+00 1.793479999999999963e+00 2.914460000000000051e+00 1.374489999999999990e+00 5.653279999999999639e+00 5.849299999999999500e-01 6.722000000000000197e-01 1.447869999999999990e+01 8.481499999999999595e-01 1.638309999999999933e+00 7.313399999999999679e+00 2.757159999999999833e+00 3.130900000000000016e+00 3.577620000000000022e+00 1.971219999999999972e+00 2.946790000000000020e+00 9.493980000000000530e+00 7.421600000000000419e-01 3.491999999999999993e+00 5.358290000000000219e+00 1.457300000000000040e+00 2.930429999999999868e+00 1.023930000000000007e+00 2.397040000000000060e+00 1.124409999999999910e+00 1.375290000000000035e+01
8.656899999999999595e-01 3.129430000000000156e+00 5.641630000000000145e+00 1.651119999999999921e+00 6.136300000000000088e-01 1.011069999999999958e+01 1.419010000000000105e+00 2.960480000000000000e+00 7.978519999999999612e+00 3.390249999999999986e+00 1.124700000000000033e+00 1.798859999999999904e+00 2.205600000000000060e-01 2.833730000000000082e+00 3.422610000000000152e+00 3.689309999999999867e+00 2.434639999999999915e+00 9.832760000000000389e+00 3.385120000000000129e+00 2.813340000000000174e+00 1.706419999999999959e+01 1.533649999999999958e+00 5.504999999999999893e-01 1.678490000000000038e+01 3.458549999999999791e+00 1.278929999999999900e+00 7.773609999999999687e+00 1.747400000000000064e-01 1.344640000000000057e+00 5.498579999999999579e+00 1.779749999999999943e+00 2.648350000000000204e+00 1.528149999999999897e+00 2.056039999999999868e+00 8.357900000000000329e-01 3.829229999999999912e+00
1.744769999999999932e+00 1.825090000000000101e+00 7.459000000000000352e-02 1.632439999999999891e+00 2.113999999999999907e-02 4.953470000000000262e+00 -8.719000000000000361e-02 3.416710000000000136e+00 3.304419999999999913e+00 3.183650000000000091e+00 3.355649999999999800e+00 6.834859999999999935e+00 3.308019999999999960e+00 1.685499999999999998e+00 1.579159999999999897e+00 3.296409999999999840e+00 1.717030000000000056e+00 4.970110000000000028e+00 1.764639999999999986e+00 1.576330000000000009e+00 3.391950000000000021e+00 3.111380000000000035e+00 1.481929999999999970e+00 8.488950000000000884e+00 1.784799999999999942e+00 3.423480000000000079e+00 1.739020000000000010e+00 1.495060000000000056e+00 3.256110000000000060e+00 8.595399999999999707e+00 5.732999999999999902e-02 4.395999999999999908e-02 9.049999999999999711e-02 1.464769999999999905e+00 1.692860000000000031e+00 6.764870000000000161e+00
5.355600000000000360e-01 2.935820000000000096e+00 1.538799999999999990e+01 2.246729999999999894e+00 2.159110000000000085e+00 1.009919999999999973e+01 3.187980000000000036e+00 1.547679999999999945e+00 2.841460000000000097e+00 2.782459999999999933e+00 2.892560000000000020e+00 1.008089999999999931e+00 1.114340000000000108e+00 1.148069999999999924e+00 6.490000000000000213e-01 4.575500000000000123e-01 2.220180000000000042e+00 8.207090000000000884e+00 2.099889999999999812e+00 2.711199999999999832e+00 5.470139999999999780e+00 5.760100000000000220e-01 3.662599999999999745e-01 9.962479999999999336e+00 1.287900000000000045e+00 3.322810000000000041e+00 3.039159999999999862e+00 1.945399999999999907e-01 1.996100000000000096e-01 5.337939999999999685e+00 2.247930000000000206e+00 6.333600000000000341e-01 7.881199999999999761e+00 2.118900000000000006e+00 1.265419999999999989e+00 1.518960000000000043e+01
3.539350000000000218e+00 1.933280000000000109e+00 4.582899999999999752e-01 -1.981499999999999928e-01 2.558139999999999858e+00 8.261749999999999261e+00 9.615299999999999958e-01 1.841180000000000039e+00 1.234929999999999950e+01 1.677270000000000039e+00 8.731299999999999617e-01 4.733670000000000044e+00 1.740280000000000049e+00 2.818639999999999812e+00 6.641569999999999752e+00 3.295150000000000023e+00 5.848499999999999810e-01 1.282540000000000013e+01 3.418849999999999945e+00 8.309299999999999464e-01 6.395929999999999893e+00 1.383140000000000036e+00 7.025099999999999678e-01 8.090220000000000411e+00 1.768440000000000012e+00 1.946900000000000019e-01 4.363999999999999824e-02 1.686100000000000099e-01 2.818330000000000002e+00 4.675900000000000389e+00 1.935550000000000104e+00 2.696200000000000152e+00 1.022959999999999958e+01 -1.769999999999999907e-01 7.415899999999999714e-01 1.027059999999999995e+01
7.745100000000000318e-01 3.557640000000000136e+00 9.565239999999999299e+00 1.583720000000000017e+00 2.091819999999999791e+00 4.404399999999999982e-01 1.672190000000000065e+00 1.595809999999999951e+00 3.921699999999999964e+00 3.019219999999999793e+00 3.179419999999999913e+00 7.777149999999999785e+00 1.880910000000000082e+00 8.358299999999999619e-01 7.581769999999999676e+00 3.885780000000000012e+00 3.916220000000000034e+00 7.219100000000000517e-01 3.248790000000000067e+00 1.709899999999999975e+00 9.183960000000000790e+00 2.109789999999999832e+00 3.531800000000000050e+00 5.277790000000000425e+00 3.082430000000000003e+00 2.223869999999999791e+00 2.169059999999999988e+00 1.749100000000000099e-01 1.301619999999999999e+00 5.778299999999999770e+00 4.152500000000000080e-01 3.563309999999999977e+00 3.907109999999999861e+00 1.756899999999999906e+00 1.121800000000000019e-01 1.885490000000000110e+00
2.742570000000000174e+00 1.445869999999999989e+00 9.811650000000000205e+00 1.054899999999999949e+00 1.619899999999999896e+00 1.732189999999999941e+01 3.431299999999999795e+00 2.025090000000000057e+00 1.542720000000000091e+00 2.837159999999999904e+00 2.713680000000000092e+00 7.598259999999999792e+00 3.525259999999999838e+00 3.601649999999999796e+00 1.828180000000000049e+01 2.146250000000000213e+00 3.135949999999999793e+00 5.290879999999999583e+00 1.191259999999999986e+00 8.764100000000000223e-01 7.931729999999999947e+00 9.588400000000000256e-01 3.059299999999999908e+00 9.483280000000000598e+00 3.345699999999999896e+00 3.405780000000000030e+00 3.483389999999999986e+00 1.280699999999999894e-01 1.872889999999999944e+00 5.497359999999999580e+00 1.770480000000000054e+00 1.579260000000000108e+00 3.032999999999999918e+00 1.979950000000000099e+00 4.752399999999999958e-01 1.149480000000000057e+00
3.637789999999999857e+00 2.558949999999999836e+00 9.604400000000000048e+00 3.748289999999999900e+00 1.790140000000000065e+00 5.560389999999999944e+00 2.257239999999999913e+00 3.832580000000000098e+00 5.563229999999999897e+00 1.485239999999999894e+00 6.565900000000000070e-01 9.539989999999999526e+00 1.695170000000000066e+00 1.896849999999999925e+00 1.255199999999999960e+01 1.812829999999999941e+00 3.920869999999999855e+00 1.939070000000000071e+00 8.795000000000000040e-02 3.764839999999999964e+00 3.794259999999999966e+00 6.523099999999999454e-01 3.947119999999999962e+00 7.137319999999999887e+00 3.405349999999999877e+00 2.037619999999999987e+00 1.862489999999999979e+00 2.343280000000000030e+00 2.275510000000000144e+00 7.789550000000000196e+00 1.819399999999999906e-01 6.595199999999999951e-01 1.309730000000000061e+01 2.016249999999999876e+00 1.990609999999999991e+00 3.960879999999999956e+00
2.722269999999999968e+00 2.425819999999999865e+00 3.284060000000000201e+00 1.775230000000000086e+00 7.455399999999999805e-01 1.657519999999999882e+01 1.764799999999999980e-01 2.478769999999999918e+00 1.648539999999999850e+01 1.136069999999999913e+00 5.600100000000000078e-01 7.589409999999999989e+00 1.177680000000000060e+00 1.158269999999999911e+00 3.489850000000000119e+00 1.053399999999999892e+00 2.577240000000000197e+00 9.327959999999999141e+00 2.076750000000000096e+00 8.345200000000000395e-01 5.572750000000000092e+00 3.044480000000000075e+00 2.377099999999999991e+00 7.397389999999999688e+00 2.863189999999999902e+00 1.067269999999999941e+00 9.856379999999999697e+00 1.874440000000000106e+00 2.689909999999999801e+00 1.503220000000000001e+00 4.619599999999999818e-01 8.176099999999999479e-01 1.377140000000000031e+00 3.489499999999999824e-01 2.752040000000000042e+00 5.326170000000000293e+00
-9.153000000000000025e-02 1.942090000000000094e+00 1.883579999999999899e+01 1.941769999999999996e+00 1.445610000000000062e+00 8.342460000000000875e+00 5.353499999999999925e-01 3.014839999999999964e+00 3.784670000000000201e+00 2.001600000000000046e-01 1.056710000000000038e+00 5.723250000000000171e+00 2.094170000000000087e+00 2.103250000000000064e+00 2.009059999999999846e+00 2.177740000000000009e+00 2.564989999999999881e+00 5.834069999999999645e+00 -4.891000000000000208e-02 3.386099999999999888e+00 7.670810000000000350e+00 8.319000000000000006e-02 1.787090000000000067e+00 9.461029999999999163e+00 3.799830000000000041e+00 8.071199999999999486e-01 1.292059999999999986e+00 3.255399999999999849e+00 2.153200000000000114e-01 1.021119999999999983e+01 2.511610000000000120e+00 6.419000000000000261e-01 3.699590000000000156e+00 1.685519999999999907e+00 1.305699999999999916e-01 2.790699999999999847e-01
