2.298610000000000098e-01 -1.018690000000000012e-01 -3.040999999999999953e-02 2.650290000000000146e-01 2.677800000000000180e-01 1.549669999999999936e-01 3.542669999999999986e-01 -8.606800000000000561e-02 -9.677299999999999791e-02 -7.668909999999999894e-01 -1.504969999999999919e-01 -1.565269999999999995e-01 7.813780000000000170e-01 -3.659259999999999735e-01 1.180709000000000009e+00 -4.826460000000000194e-01 6.628570000000000295e-01 3.084899999999999864e-01 -2.893000000000000016e-01 2.910929999999999906e-01 -3.600829999999999864e-01 4.670869999999999744e-01 -1.109799999999999953e-01 -1.816840000000000122e-01 2.775929999999999787e-01 -3.172200000000000020e-02 -6.574539999999999829e-01 -2.225870000000000071e-01 -3.376430000000000264e-01 -1.098273999999999972e+00 -1.982319999999999915e-01 9.434800000000000131e-02 5.740439999999999987e-01 -1.153607000000000049e+00 -2.821040000000000214e-01 -2.586169999999999858e-01 1.282281000000000004e+00 1.213578000000000046e+00 2.189341999999999899e+00 2.963000000000000078e-01 -3.608270000000000088e-01 4.483600000000000085e-02 2.156500000000000083e-01 8.170999999999999444e-03 3.342559999999999976e-01 -1.056184000000000012e+00 -7.101910000000000167e-01 -1.946820999999999913e+00
-3.489650000000000252e-01 2.567619999999999902e-01 -9.051789999999999559e-01 -1.219286000000000092e+00 -6.105040000000000466e-01 -2.816974999999999785e+00 -2.226819999999999911e-01 -3.497899999999999898e-01 -1.625729999999999953e-01 1.407049999999999967e-01 1.202083000000000013e+00 1.773260000000000114e-01 6.389780000000000459e-01 -7.448599999999999666e-01 1.573680000000000079e-01 -7.420799999999999619e-02 4.444350000000000245e-01 -2.015010000000000134e-01 2.032380000000000020e-01 -3.053669999999999995e-01 1.116422999999999943e+00 5.023349999999999760e-01 -2.998649999999999927e-01 -6.855550000000000255e-01 1.994652000000000092e+00 2.334849999999999981e-01 2.410832000000000086e+00 -5.469570000000000265e-01 -2.511899999999999897e-02 -6.883320000000000549e-01 1.465049999999999963e-01 -2.741660000000000208e-01 2.683800000000000074e-02 -2.027966999999999853e+00 -7.976900000000000657e-02 -8.626100000000000434e-02 -4.500560000000000116e-01 1.379589999999999983e-01 3.699689999999999923e-01 -2.626479999999999926e-01 2.097509999999999930e-01 2.991759999999999975e-01 -2.552209999999999757e-01 -1.689380000000000048e-01 4.918069999999999942e-01 1.781574999999999909e+00 3.739009999999999834e-01 4.966360000000000219e-01
