-3.732387803000000304e+01
-4.008533570000000168e+01
-3.797478722999999690e+01
-3.938704755999999918e+01
-3.861748673000000309e+01
-3.905709095999999647e+01
-3.806964265999999952e+01
-3.810455276999999796e+01
-3.957611144999999908e+01
-3.736158797000000220e+01
-3.968034895000000262e+01
-4.089682618999999875e+01
-3.946314242999999777e+01
-3.791925669999999826e+01
