-7.060876999999999626e+00 3.507814999999999905e+00 2.076099999999999834e+00 6.707200000000000661e-02 -7.371090000000000142e-01 3.737289999999999779e-01 4.566500000000000004e-01 2.990959999999999730e-01 -5.650450000000000195e-01 -2.031972999999999807e+00 -1.088960000000000067e-01 2.675581999999999905e+00 9.631939999999999946e-01 9.861140000000000461e-01 -2.237595999999999918e+00 7.223244000000000220e+00 -3.367236999999999814e+00 -1.244059999999999944e+00 4.845409999999999995e-01 -5.626470000000000082e-01 -2.300536999999999832e+00 -3.756780000000000119e-01 -1.976179999999999881e-01 6.841700000000000559e-02 -9.346109999999999696e-01 -4.718240000000000212e-01 7.204180000000000028e-01 1.353757000000000099e+00 -2.006370000000000098e-01 5.927029999999999799e-01 3.588199999999999723e-02 5.912450000000000205e-01 -1.165535999999999905e+00 -1.812010000000000010e-01 2.616970000000000129e-01 1.005824000000000051e+00
-5.418060000000000098e-01 1.517390000000000128e-01 5.869599999999999818e-02 -1.199200000000000044e+00 -1.908133000000000079e+00 2.834208999999999978e+00 5.222080000000000055e-01 -2.938299999999999940e-02 -1.395086999999999966e+00 -4.248020000000000129e-01 3.277140000000000053e-01 -8.138030000000000541e-01 -5.247370000000000090e-01 -8.638379999999999947e-01 -1.974936000000000025e+00 2.423599999999999921e-01 -8.073500000000000121e-02 8.631149999999999656e-01 6.597999999999999698e-03 5.701310000000000544e-01 -1.876606999999999914e+00 1.250455000000000094e+00 2.809220000000000050e-01 1.552780000000000049e+00 -1.397490000000000121e-01 1.953570000000000029e-01 4.031069999999999931e-01 2.797529999999999739e-01 1.044140999999999986e+00 -3.110180000000000167e-01 -5.110789999999999500e-01 -3.594680000000000097e-01 -6.193009999999999904e-01 1.040000000000000036e+00 6.715529999999999555e-01 1.278845000000000010e+00
1.329582999999999959e+00 1.596970000000000056e-01 4.088950000000000085e-01 7.802069999999999839e-01 -7.049429999999999863e-01 -2.449399999999999841e-02 8.519719999999999516e-01 3.651059999999999861e-01 5.200280000000000458e-01 -1.993150999999999895e+00 3.233639999999999848e-01 1.141220000000000012e-01 -9.357180000000000497e-01 2.424300000000000066e-02 -1.598000000000000028e-03 -4.232159000000000226e+00 1.264726000000000017e+00 7.347839999999999927e-01 4.329011999999999638e+00 -9.904760000000000231e-01 -4.272139999999999826e-01 -7.444359999999999866e-01 -2.930409999999999959e-01 -4.930450000000000110e-01 7.506999999999999784e-02 1.901349999999999985e-01 -4.308449999999999780e-01 -4.774410000000000043e-01 -6.302440000000000264e-01 -7.176339999999999941e-01 -7.655389999999999695e-01 4.572189999999999865e-01 9.007570000000000299e-01 1.782599999999999962e+00 -1.657839999999999869e-01 -5.837560000000000526e-01
5.440961999999999854e+00 9.314299999999999802e-01 -9.268459999999999477e-01 -1.977160000000000029e-01 2.391870000000000107e-01 1.224086000000000007e+00 -1.137299999999999978e+00 2.377199999999999869e-01 -1.118284999999999973e+00 -2.166859999999999897e-01 -8.486100000000000587e-02 -4.382829999999999782e-01 -4.993049999999999988e-01 3.318220000000000058e-01 6.852329999999999810e-01 -5.676154999999999617e+00 -9.518579999999999819e-01 2.411729999999999985e-01 -1.883620000000000017e-01 7.569299999999999640e-02 -1.629999999999999852e-02 5.672810000000000352e-01 -8.961789999999999479e-01 -7.569700000000000040e-02 1.680889999999999995e+00 -5.259120000000000461e-01 1.368443999999999994e+00 -6.874800000000000355e-02 2.231219999999999870e-01 -1.009374999999999911e+00 -6.500699999999999534e-02 5.197850000000000525e-01 4.026080000000000214e-01 3.601460000000000217e-01 -9.994999999999999718e-02 -3.367580000000000018e-01
-1.223041999999999963e+00 1.448800000000000088e-01 2.517710000000000226e-01 2.329797000000000118e+00 8.565589999999999593e-01 1.634182999999999941e+00 6.317190000000000305e-01 -1.593030000000000002e-01 9.545909999999999673e-01 -1.586919999999999997e-01 4.445470000000000255e-01 3.553330000000000100e-01 -1.514278000000000013e+00 -6.345499999999999474e-01 -1.844680000000000097e+00 -3.683799999999999852e-01 4.273469999999999769e-01 1.601482999999999990e+00 -2.505190999999999946e+00 -8.766530000000000156e-01 -1.275271999999999961e+00 1.986749999999999905e-01 -7.902329999999999632e-01 -2.404503000000000057e+00 1.616184000000000065e+00 7.335730000000000306e-01 6.537030000000000340e-01 -6.035399999999999793e-02 -8.339299999999999491e-02 7.843729999999999869e-01 5.133170000000000233e-01 7.938260000000000316e-01 2.686040000000000094e-01 5.402460000000000040e-01 -8.566000000000000281e-01 -9.795859999999999568e-01
4.440720000000000223e-01 -6.460869999999999669e-01 1.202339999999999937e-01 -8.597380000000000022e-01 3.121229999999999838e-01 8.414989999999999970e-01 -1.473009999999999875e-01 -8.591500000000000525e-02 4.312743000000000215e+00 -1.569492000000000109e+00 -2.399509999999999976e-01 -1.876333000000000029e+00 -6.769279999999999742e-01 1.528329999999999966e-01 1.154711000000000043e+00 2.646382000000000012e+00 -3.991669999999999940e-01 1.118462999999999985e+00 7.729740000000000499e-01 -3.435489999999999933e-01 -3.154020000000000157e-01 5.431000000000000064e-03 -1.110900000000000082e-02 -1.973689999999999889e-01 4.847199999999999842e-01 1.422630000000000006e-01 -4.297849999999999726e-01 -2.146619999999999917e-01 -1.138630000000000059e-01 9.080000000000000571e-02 -3.044259999999999744e-01 7.319149999999999823e-01 -5.024199000000000304e+00 -5.810300000000000464e-01 5.005070000000000352e-01 2.046379999999999866e-01
-1.032199999999999958e-02 1.291239999999999888e-01 -8.885150000000000547e-01 -1.726799999999999863e-02 8.017900000000000027e-02 1.141640000000000016e-01 2.234201000000000104e+00 -4.598679999999999990e-01 -3.263980000000000214e-01 8.881409999999999583e-01 4.662529999999999730e-01 1.619615999999999945e+00 2.194810000000000094e-01 -1.688969999999999916e-01 6.015920000000000156e-01 -4.263950000000000351e+00 -1.405510000000000037e+00 9.337100000000000399e-01 4.224124999999999908e+00 1.431241999999999903e+00 -2.741930000000000200e-01 4.271579999999999822e-01 3.168199999999999905e-01 -8.449440000000000284e-01 8.165320000000000356e-01 5.167399999999999771e-02 -3.693870000000000209e-01 -2.398506999999999945e+00 6.641310000000000269e-01 2.906139999999999834e-01 5.366000000000000110e-03 -4.802899999999999947e-01 -6.576130000000000031e-01 -2.124956000000000067e+00 -6.248569999999999958e-01 -1.986459999999999892e-01
-5.765409999999999702e-01 4.552899999999999725e-01 2.633269999999999778e-01 2.473253999999999841e+00 1.010696000000000039e+00 1.549887000000000015e+00 2.026670000000000138e-01 -3.944039999999999768e-01 8.452359999999999873e-01 -3.556349999999999789e-01 3.857380000000000253e-01 3.958249999999999824e-01 -2.580265999999999948e+00 -1.292386999999999952e+00 -2.024909000000000070e+00 -6.833879999999999955e-01 3.534220000000000139e-01 9.601180000000000270e-01 -2.599903999999999993e+00 -9.704199999999999493e-01 -1.488807999999999909e+00 2.021370000000000111e-01 -8.985800000000000454e-01 -3.081897000000000109e+00 2.779905999999999988e+00 1.281655999999999906e+00 1.169972999999999930e+00 -2.268900000000000083e-01 2.054599999999999829e-02 7.671099999999999586e-01 2.687579999999999969e-01 7.905790000000000317e-01 1.080824000000000007e+00 1.095903999999999989e+00 -7.421360000000000179e-01 -4.366849999999999898e-01
-4.254669999999999841e-01 -1.187030000000000030e-01 -9.891999999999999751e-03 4.040360000000000062e-01 -1.576120000000000021e-01 -6.632240000000000357e-01 1.242555000000000076e+00 5.871400000000000230e-02 4.660900000000000043e-01 2.167615000000000069e+00 2.754576000000000136e+00 1.193020000000000053e-01 -1.676890000000000047e-01 -1.836490000000000067e-01 -1.053288000000000002e+00 -6.754100000000000381e-02 4.859280000000000266e-01 7.320400000000000518e-02 7.708880000000000177e-01 -2.790889999999999760e-01 9.820710000000000273e-01 -4.070898999999999823e+00 -1.184369000000000005e+00 -3.518879000000000090e+00 3.406000000000000000e-02 -8.807999999999999857e-03 2.448470000000000091e-01 -1.346986000000000017e+00 -1.266750000000000098e-01 -5.824949999999999850e-01 4.994099999999999928e-02 5.680799999999999739e-02 5.784799999999999665e-02 1.409486999999999934e+00 -1.297122000000000108e+00 3.884417000000000009e+00
1.343939999999999912e+00 4.924410000000000176e-01 5.153379999999999628e-01 -4.840000000000000010e-04 3.595820000000000127e-01 -8.176160000000000094e-01 -3.063544999999999963e+00 4.886829999999999785e-01 -3.518410000000000148e-01 -2.123680000000000012e-01 7.152999999999999636e-03 -1.365118999999999971e+00 -6.829060000000000130e-01 -4.008749999999999813e-01 -3.504999999999999782e-01 5.576870999999999690e+00 -1.833359999999999990e-01 8.346989999999999688e-01 -5.566703999999999652e+00 2.029920000000000058e-01 -1.580840000000000023e-01 -2.209820000000000118e-01 2.032539999999999902e-01 1.089933000000000041e+00 -8.672100000000000641e-02 4.935500000000000304e-02 5.948379999999999779e-01 2.630291000000000157e+00 -5.721270000000000522e-01 4.695920000000000094e-01 8.203699999999999881e-02 -6.641749999999999599e-01 -9.684789999999999788e-01 2.005699999999999983e-01 1.705299999999999871e-02 5.072400000000000242e-01
1.285109000000000057e+00 -7.047590000000000243e-01 4.497360000000000246e-01 -1.912238000000000104e+00 7.900030000000000108e-01 -1.864449999999999996e-01 -4.671319999999999917e-01 6.955300000000000371e-02 -9.986199999999999521e-01 -2.218060000000000032e-01 -1.641219999999999901e-01 -1.826099999999999945e-02 7.865999999999999381e-02 5.595800000000000080e-02 4.880240000000000133e-01 -1.364794000000000063e+00 -1.648412999999999906e+00 -3.949596999999999802e+00 -3.064175999999999789e+00 8.644530000000000269e-01 -2.172900999999999971e+00 -5.703979999999999606e-01 4.888299999999999867e-01 4.864866000000000135e+00 5.540490000000000137e-01 6.173840000000000439e-01 -2.868640000000000079e-01 3.764527000000000179e+00 -6.162699999999999845e-01 1.717346000000000039e+00 2.089109999999999800e+00 6.194530000000000314e-01 1.548200000000000132e-01 -1.709100000000000064e-01 -3.720709999999999851e-01 -6.210299999999999848e-02
1.101350999999999969e+00 1.863059999999999994e-01 -2.058109999999999939e-01 -1.785319000000000100e+00 -8.079779999999999740e-01 -2.555544999999999956e+00 7.080599999999999394e-02 3.556940000000000102e-01 2.001090000000000091e-01 4.106909999999999727e-01 1.010439999999999949e-01 -1.081536999999999971e+00 -1.256690000000000029e-01 -5.422160000000000313e-01 4.764209999999999834e-01 8.646869999999999834e-01 3.037850000000000272e-01 2.383140000000000036e+00 -6.266498000000000346e+00 -1.565940000000000110e-01 -1.262500000000000080e-02 5.927451999999999721e+00 6.085660000000000514e-01 2.820610000000000062e-01 5.641899999999999693e-02 5.097969999999999446e-01 6.685800000000000076e-02 1.427332000000000045e+00 9.985389999999999544e-01 9.706399999999999750e-02 -1.522699999999999922e-02 -4.540210000000000079e-01 5.648199999999999749e-02 -1.666025000000000089e+00 -1.102921000000000040e+00 2.933830000000000049e-01
-4.455339999999999856e-01 6.904789999999999539e-01 1.607245000000000035e+00 6.097329999999999695e-01 1.517199999999999972e-02 3.982546999999999837e+00 6.754019999999999468e-01 -1.321720000000000117e-01 -1.399253000000000080e+00 -5.895829999999999682e-01 4.145519999999999761e-01 -5.077589999999999604e-01 -3.198739999999999917e-01 5.806499999999999856e-02 -2.701990000000000225e-01 7.287759999999999794e-01 4.064820000000000100e-01 -5.206739999999999702e-01 1.760700000000000112e-02 7.588599999999999512e-02 -1.214340000000000003e-01 9.832779999999999854e-01 -2.895209999999999728e-01 2.212199999999999930e-02 -8.431980000000000031e-01 -6.188329999999999664e-01 -3.184064999999999923e+00 -9.892339999999999467e-01 -6.898799999999999377e-02 9.263609999999999900e-01 4.640489999999999893e-01 -2.892230000000000079e-01 -1.785110000000000030e-01 -2.914229999999999876e-01 -2.618989999999999929e-01 -3.563810000000000033e-01
6.155439999999999579e+00 -3.047111999999999821e+00 1.360052999999999956e+00 8.125289999999999457e-01 -2.368419999999999970e-01 -8.661959999999999660e-01 4.261860000000000093e-01 -3.262400000000000022e-02 -7.951160000000000450e-01 1.600827999999999918e+00 6.093809999999999505e-01 -1.137156999999999973e+00 -4.845039999999999902e-01 9.037900000000000100e-02 1.106240000000000001e-01 -5.545730999999999966e+00 3.479800000000000004e+00 -2.494034999999999780e+00 -1.991849999999999898e+00 -7.724919999999999565e-01 3.949710000000000165e-01 -5.475970000000000004e-01 -2.064799999999999969e-02 7.442929999999999824e-01 -6.246319999999999650e-01 3.407400000000000012e-02 -6.955799999999999483e-02 -1.349947000000000008e+00 8.380999999999999561e-01 4.108209999999999917e-01 4.363999999999999824e-02 -4.335530000000000217e-01 1.461915999999999993e+00 1.505638000000000032e+00 -5.084629999999999983e-01 8.793849999999999723e-01
