4.369977702999999991e+00 0.000000000000000000e+00 0.000000000000000000e+00 1.308584999999999913e-03 2.523515721999999961e+00 0.000000000000000000e+00 -2.699728200000000022e-01 1.480633929999999876e-01 2.126026755099999832e+01
4.286162094999999894e+00 0.000000000000000000e+00 0.000000000000000000e+00 6.436406000000000072e-02 2.511128611999999816e+00 0.000000000000000000e+00 3.752740090000000195e-01 -1.977067710000000034e-01 1.689019689399999891e+01
4.525708951000000368e+00 0.000000000000000000e+00 0.000000000000000000e+00 5.466742499999999866e-02 2.537043548000000204e+00 0.000000000000000000e+00 1.255586519999999928e-01 5.771574200000000043e-02 2.135920257500000119e+01
4.660469234999999877e+00 0.000000000000000000e+00 0.000000000000000000e+00 -6.165295500000000234e-02 2.632854311000000003e+00 0.000000000000000000e+00 -5.762797800000000192e-01 4.215871150000000123e-01 2.144756067599999838e+01
4.441421883000000292e+00 0.000000000000000000e+00 0.000000000000000000e+00 -1.890624299999999966e-02 2.644912842000000097e+00 0.000000000000000000e+00 -2.134415970000000107e-01 -3.255884800000000134e-01 1.615747222899999969e+01
4.369977702999999991e+00 0.000000000000000000e+00 0.000000000000000000e+00 1.308584999999999913e-03 2.523515721999999961e+00 0.000000000000000000e+00 -2.699728200000000022e-01 1.480633929999999876e-01 2.126026755099999832e+01
4.319647237999999945e+00 0.000000000000000000e+00 0.000000000000000000e+00 -6.815735300000000385e-02 2.494447969999999959e+00 0.000000000000000000e+00 -2.352832689999999893e-01 3.048358509999999910e-01 1.987451071599999963e+01
4.230227084000000026e+00 0.000000000000000000e+00 0.000000000000000000e+00 2.308227599999999879e-02 2.387238564000000007e+00 0.000000000000000000e+00 -2.103886349999999905e-01 1.743886530000000046e-01 1.998124259300000105e+01
4.775144141000000175e+00 0.000000000000000000e+00 0.000000000000000000e+00 7.237194600000000644e-02 2.684966921000000006e+00 0.000000000000000000e+00 -3.597719560000000039e-01 3.351533599999999974e-02 2.083321192900000085e+01
4.225531452000000243e+00 0.000000000000000000e+00 0.000000000000000000e+00 5.148649599999999965e-02 2.484134677000000124e+00 0.000000000000000000e+00 2.925500109999999987e-01 -2.132734400000000086e-01 1.745024645199999824e+01
4.607584038999999798e+00 0.000000000000000000e+00 0.000000000000000000e+00 -7.178787799999999941e-02 2.731822310000000087e+00 0.000000000000000000e+00 -5.655621360000000486e-01 -7.452689999999999315e-02 2.069781578899999985e+01
4.256207251000000191e+00 0.000000000000000000e+00 0.000000000000000000e+00 2.234241600000000036e-02 2.503253464000000150e+00 0.000000000000000000e+00 -3.064221610000000262e-01 3.649793669999999990e-01 1.868388540799999831e+01
