1.079951747756389357e+00 6.235067454774787521e-01 1.760630080500160455e+00 3.239845181288272702e+00 1.870510116450620819e+00 7.042540241499442466e+00 4.319807052947346904e+00 2.494017101918710289e+00 5.281900321999966508e+00 1.079951623853704357e+00 6.235065054578436960e-01 5.281900080500149919e+00 5.399745305210884361e+00 1.870514087449423046e+00 3.521270317499960445e+00 4.319807176850031460e+00 2.494017341938345567e+00 1.760630321999976600e+00 4.319810734293699994e+00 3.741027221922931023e+00 3.521270406999796432e+00 2.159907052956446361e+00 2.494023370939543405e+00 5.281900246000141408e+00 3.239845305219982041e+00 1.870520356470256162e+00 3.521270241500135345e+00 2.159907176859131361e+00 2.494023610959178683e+00 1.760630246000151500e+00 5.399745181308198916e+00 1.870513847429787768e+00 7.042540317499949687e+00 3.239841623873629395e+00 6.235102364660349838e-01 5.281900156500305421e+00 6.479700734313625254e+00 3.741030952931122755e+00 3.521270482999951046e+00 6.479700858216309811e+00 3.741031192950758033e+00 4.829999618654161443e-07 4.319810610391014549e+00 3.741026981903296189e+00 7.042540406999785674e+00 3.239841747776314396e+00 6.235104764856700399e-01 1.760630156500315513e+00
1.080351747151797381e+00 6.232967443260388762e-01 1.760490080499921284e+00 3.240125188619367158e+00 1.873010115783108498e+00 7.040410241679702530e+00 4.316817040642179748e+00 2.489747110768168792e+00 5.279390321603702141e+00 1.079341619032277988e+00 6.218565071656406706e-01 5.282820080366217752e+00 5.396635306745490190e+00 1.871074096300207268e+00 3.523850317428701029e+00 4.323737174976607811e+00 2.493377330501012068e+00 1.761080322094636275e+00 4.319690725781755170e+00 3.738097222256242969e+00 3.521490406795856565e+00 2.162157055171283204e+00 2.494773364482623990e+00 5.280820246130433659e+00 3.238965306536458755e+00 1.871000358875823055e+00 3.523450241501889124e+00 2.159007176400001171e+00 2.493903613356679205e+00 1.763780245960303805e+00 1.080515178695712786e+00 1.869616383837505502e+00 7.042240165458327539e+00 3.237051640431930721e+00 6.291602448726487662e-01 5.277370156787254629e+00 2.159390726644333292e+00 3.738443492179720717e+00 3.525280330805132145e+00 2.160340608675012763e+00 3.740403249876472991e+00 7.039600330972148434e+00 2.160759757484197241e+00 1.793248587597838332e-03 7.040430076152757621e+00 3.243071754083595160e+00 6.257104669593974711e-01 1.762850156763927201e+00
1.080781746401730636e+00 6.230367430868438694e-01 1.760360080497328950e+00 3.240405195830844409e+00 1.875470115108780478e+00 7.038380241857235653e+00 4.313977028710461070e+00 2.485607119174760182e+00 5.276990321221576963e+00 1.078751614328005370e+00 6.202465088174332619e-01 5.283710080235715090e+00 5.393605308020284816e+00 1.871544104921522012e+00 3.526390317354121784e+00 4.327587173250066144e+00 2.492787319299282434e+00 1.761480322189888925e+00 4.319550717561463138e+00 3.735267222650330066e+00 3.521670406598029324e+00 2.164227057471082460e+00 2.495553358544056799e+00 5.279800246256436402e+00 3.238055307770435931e+00 1.871450361377324789e+00 3.525500241500542753e+00 2.158167175972006913e+00 2.493793615584121603e+00 1.766870245923249039e+00 1.081055176210152347e+00 1.868756382290629903e+00 7.041940165418708375e+00 3.234271656376844550e+00 6.346002532427410525e-01 5.272950157060241061e+00 2.158880719162830086e+00 3.735913493392106322e+00 3.529210330614734659e+00 2.160710607005849937e+00 3.739793248998874553e+00 7.036720330943587953e+00 2.161669762665006100e+00 3.553246086768257431e-03 7.038370076304744316e+00 3.246251760363962457e+00 6.279004575823373679e-01 1.765010157025097559e+00
1.081281745360010094e+00 6.226767416417506862e-01 1.760270080490383693e+00 3.240715202803087003e+00 1.877850114333746046e+00 7.036550242030370939e+00 4.311437017527046223e+00 2.481727126698343167e+00 5.274770320867731677e+00 1.078211609828312101e+00 6.187065103268292177e-01 5.284560080111742941e+00 5.390695308746074055e+00 1.871824113199314077e+00 3.528860317270813951e+00 4.331277171816585891e+00 2.492297308567398950e+00 1.761800322286328324e+00 4.319340709808027867e+00 3.732597223252359875e+00 3.521780406408645536e+00 2.165967059883815882e+00 2.496373353557166386e+00 5.278870246373555730e+00 3.237095308751988476e+00 1.871810364040990660e+00 3.527300241491301946e+00 2.157457175577961905e+00 2.493693617443788035e+00 1.769820245891450039e+00 1.081585173957491763e+00 1.867976380774142076e+00 7.041620165384190777e+00 3.231501671211434612e+00 6.396602615694960692e-01 5.268740157307679084e+00 2.158400712094004081e+00 3.733523494529686015e+00 3.532960330434935958e+00 2.160960605505908738e+00 3.739243248460028646e+00 7.033980330914895163e+00 2.162679767610451442e+00 5.233243289558479026e-03 7.036400076454797592e+00 3.249341766503079043e+00 6.300404484739968725e-01 1.767060157279693344e+00
1.081891743968586450e+00 6.221967398746608424e-01 1.760220080479129479e+00 3.241075209445854810e+00 1.880120113393821901e+00 7.035010242197768271e+00 4.309307007436360415e+00 2.478227133012149697e+00 5.272840320554213811e+00 1.077721605620623802e+00 6.172665116945098562e-01 5.285360079996347160e+00 5.387985308692067932e+00 1.871834120904113385e+00 3.531220317176139378e+00 4.334727170823049036e+00 2.491957298540966814e+00 1.761990322384547003e+00 4.319050702812400999e+00 3.730187224092719411e+00 3.521800406234168346e+00 2.167227062494444301e+00 2.497263349953231515e+00 5.278090246478555514e+00 3.236045309427642014e+00 1.872060366991780134e+00 3.528720241471396513e+00 2.156947175276972661e+00 2.493623618734549741e+00 1.772600245868733548e+00 1.082095172053830545e+00 1.867316379317066177e+00 7.041280165357148846e+00 3.228751684438764702e+00 6.441702698170737040e-01 5.264840157518330344e+00 2.157950705556418214e+00 3.731313495597232244e+00 3.536460330268461405e+00 2.161060604202454272e+00 3.738763248343599965e+00 7.031430330885696023e+00 2.163819772290451304e+00 6.823240106849895632e-03 7.034550076603289348e+00 3.252291772503053568e+00 6.321304397835884048e-01 1.768940157525954682e+00
1.082621742081633309e+00 6.215467377551872064e-01 1.760230080460509772e+00 3.241475215669610943e+00 1.882250112313261559e+00 7.033830242357029583e+00 4.307686998668840417e+00 2.475187137822524974e+00 5.271250320289995628e+00 1.077311601764045168e+00 6.159465128354463248e-01 5.286080079891945616e+00 5.385505307656504037e+00 1.871504127951572727e+00 3.533430317066382553e+00 4.337897170385907053e+00 2.491807289336764875e+00 1.762040322485864730e+00 4.318660696721461356e+00 3.728087225232866952e+00 3.521680406077303704e+00 2.167897065330586237e+00 2.498233348048795932e+00 5.277500246568248343e+00 3.234895309713138101e+00 1.872170370264171213e+00 3.529680241438429622e+00 2.156667175100525302e+00 2.493593619374104620e+00 1.775140245856836385e+00 1.082575170557568800e+00 1.866796377949108354e+00 7.040910165338592819e+00 3.226021695620650664e+00 6.479802779800216683e-01 5.261330157681970654e+00 2.157540699697304998e+00 3.729333496569809281e+00 3.539650330119072486e+00 2.160970603209827257e+00 3.738393248762279075e+00 7.029120330857308474e+00 2.165129776616526502e+00 8.293236419817766325e-03 7.032860076749583023e+00 3.255091778248845991e+00 6.341304315421817384e-01 1.770620157760803393e+00
1.083511739670477869e+00 6.207167351679124812e-01 1.760290080435250815e+00 3.241935221443571269e+00 1.884230111030607446e+00 7.033060242508178739e+00 4.306656991454216765e+00 2.472687140892499968e+00 5.270070320083345194e+00 1.076991598316273446e+00 6.147665137199322949e-01 5.286730079800253890e+00 5.383295305495313876e+00 1.870784134227639228e+00 3.535460316939542658e+00 4.340737170564618275e+00 2.491867281102642995e+00 1.761910322589884892e+00 4.318140691680333099e+00 3.726347226759875397e+00 3.521420405940403064e+00 2.167887068420212060e+00 2.499293348103035939e+00 5.277130246640148847e+00 3.233615309553242056e+00 1.872120373950690420e+00 3.530100241389982685e+00 2.156667175020298810e+00 2.493593619218693380e+00 1.777420245856836445e+00 1.083025169526756981e+00 1.866436376670268515e+00 7.040510165329888714e+00 3.223331704464382774e+00 6.509902859955198906e-01 5.258280157792488474e+00 2.157160694635578579e+00 3.727623497481894699e+00 3.542450329989143221e+00 2.160660602554939302e+00 3.738143249799049883e+00 7.027110330829360763e+00 2.166629780529922833e+00 9.623232169049743615e-03 7.031350076893019718e+00 3.257701783712837251e+00 6.360304238686018685e-01 1.772060157982150219e+00
1.084581736648045469e+00 6.196767320547879043e-01 1.760400080402011236e+00 3.242465226736952033e+00 1.886050109513427220e+00 7.032750242650884331e+00 4.306256985993906383e+00 2.470797142102568955e+00 5.269350319940443228e+00 1.076741595307037391e+00 6.137365144073800849e-01 5.287290079721248759e+00 5.381375302035053210e+00 1.869614139675627174e+00 3.537290316792233380e+00 4.343237171446956424e+00 2.492167273868987731e+00 1.761580322698300449e+00 4.317490687719449660e+00 3.724977228676470631e+00 3.520980405824148729e+00 2.167117071762617808e+00 2.500443350346785998e+00 5.277000246691443408e+00 3.232215308891663863e+00 1.871890378025721224e+00 3.529930241325043294e+00 2.156957175096102297e+00 2.493643618242699755e+00 1.779390245870448695e+00 1.083445168989714213e+00 1.866246375479183373e+00 7.040100165331715232e+00 3.220661710736006267e+00 6.531202939182094713e-01 5.255740157843727722e+00 2.156810690459016744e+00 3.726213498334852492e+00 3.544840329880718066e+00 2.160120602324161254e+00 3.738043251481572682e+00 7.025420330803543223e+00 2.168339784000208326e+00 1.080322729377018384e-02 7.030060077033621013e+00 3.260121788896084283e+00 6.378304167648932710e-01 1.773230158189995409e+00
1.085851733014336462e+00 6.184267283577644658e-01 1.760560080361494695e+00 3.243065231520025016e+00 1.887700107760357238e+00 7.032920242784464371e+00 4.306506982374627590e+00 2.469547141394000001e+00 5.269100319864036486e+00 1.076581592735984749e+00 6.128565148390591188e-01 5.287770079655635946e+00 5.379765297219431197e+00 1.867974144240895695e+00 3.538870316623795809e+00 4.345387173090973221e+00 2.492727267664825330e+00 1.761050322812123259e+00 4.316690684925883481e+00 3.724007231040702415e+00 3.520360405729881403e+00 2.165557075356395078e+00 2.501683354864392417e+00 5.277150246721073579e+00 3.230665307729811975e+00 1.871480382579064683e+00 3.529130241242557364e+00 2.157577175358015520e+00 2.493753616332069267e+00 1.781020245899762378e+00 1.083855168945738301e+00 1.866226374316440673e+00 7.039700165344778604e+00 3.218021714317663040e+00 6.543303017156580914e-01 5.253760157833311517e+00 2.156480687227778859e+00 3.725123499161795415e+00 3.546760329794808708e+00 2.159340602544759680e+00 3.738103253835465267e+00 7.024100330780187029e+00 2.170249787027030752e+00 1.183322182232204346e-02 7.029000077171035699e+00 3.262341793712568716e+00 6.395004102621261177e-01 1.774100158381941794e+00
1.087331728770406736e+00 6.169667240498621918e-01 1.760740080314053380e+00 3.243745235792085513e+00 1.889180105741009807e+00 7.033590242909273371e+00 4.307386980653025610e+00 2.468957138822116537e+00 5.269360319854784258e+00 1.076491590603115389e+00 6.121265150730184068e-01 5.288170079602710238e+00 5.378475290990754054e+00 1.865844147895101779e+00 3.540190316433217799e+00 4.347177175526397264e+00 2.493557262520543105e+00 1.760300322931682704e+00 4.315750683271314614e+00 3.723427233824910143e+00 3.519540405657270998e+00 2.163197079172872517e+00 2.503003361685561146e+00 5.277570246728007675e+00 3.228975306009988167e+00 1.870870387582376893e+00 3.527690241141512750e+00 2.158507175748693108e+00 2.493903613546215148e+00 1.782290245942710349e+00 1.084245169336779391e+00 1.866356373211064623e+00 7.039310165367363759e+00 3.215441715150247681e+00 6.546003092987471295e-01 5.252370157760933189e+00 2.156140684942921215e+00 3.724353500051843735e+00 3.548180329730359794e+00 6.478120603371273489e+00 3.738370718816334204e+00 7.023190482763031817e+00 2.172379789608983813e+00 1.271321569392963591e-02 7.028210077305966585e+00 3.264371798134320990e+00 6.410304043333202584e-01 1.774640158557660108e+00
1.089031723975008914e+00 6.153167191034198957e-01 1.760920080261402010e+00 3.244495239582159130e+00 1.890500103484409777e+00 7.034760243025638182e+00 4.308856980887146193e+00 2.469047134503015606e+00 5.270130319912643913e+00 1.076451588879053123e+00 6.115365151666254384e-01 5.288500079561086586e+00 5.377495283322103248e+00 1.863214150671359537e+00 3.541190316219466006e+00 4.348647178753226150e+00 2.494657258320041482e+00 1.759330323058386325e+00 4.314670682697692605e+00 3.723217237029092352e+00 3.518520405604955492e+00 2.160037083153295789e+00 2.504383370808929588e+00 5.278280246710882473e+00 3.227155303789187357e+00 1.870080393004589059e+00 3.525640241023623833e+00 2.159757176356615904e+00 2.494123609858839519e+00 1.783160246001689764e+00 1.084625170132405003e+00 1.866626372131304556e+00 7.038970165399137890e+00 3.212911713232704969e+00 6.539303166944561152e-01 5.251600157626241661e+00 2.155790683663548979e+00 3.723923501007041281e+00 3.549070329688734482e+00 6.476910604780995229e+00 3.738850722360343326e+00 7.022720482753173954e+00 2.174689791774386816e+00 1.345320902332801383e-02 7.027710077437688163e+00 3.266201802103292362e+00 6.424003990075006776e-01 1.774850158715435056e+00
1.090961718687247561e+00 6.134967134914576237e-01 1.761070080205255683e+00 3.245325242919622433e+00 1.891670100962213663e+00 7.036420243134593022e+00 4.310856983048319435e+00 2.469807128611527958e+00 5.271400320034820730e+00 1.076431587534421697e+00 6.110765152062725969e-01 5.288770079529028223e+00 5.376825274214187544e+00 1.860084152571032989e+00 3.541850315982541630e+00 4.349807182771111336e+00 2.496027255033615333e+00 1.758150323192586129e+00 4.313450683117946660e+00 3.723347240653250623e+00 3.517300405570888522e+00 2.156127087239616991e+00 2.505803382089374587e+00 5.279280246670094101e+00 3.225215301095728737e+00 1.869120398815313111e+00 3.523000240889925472e+00 2.161307177153464210e+00 2.494403605329353457e+00 1.783610246075314709e+00 1.085015171273159051e+00 1.867016371016384513e+00 7.038720165439444010e+00 3.210471708680780800e+00 6.523603237860050585e-01 5.251460157433370135e+00 2.155370683361693018e+00 3.723823502203580382e+00 3.549400329667139697e+00 6.475530606870773198e+00 3.739570726365733844e+00 7.022720482753693538e+00 2.177159793522537079e+00 1.405320186720310054e-02 7.027520077565498013e+00 3.267851805562842049e+00 6.435903942293446089e-01 1.774690158854607125e+00
1.093121713023925246e+00 6.115467072153384365e-01 1.761170080148341421e+00 3.246215245863580012e+00 1.892710098234515748e+00 7.038540243236798943e+00 4.313286987108575055e+00 2.471227121439943719e+00 5.273140320217115651e+00 1.076421586539844544e+00 6.107365152203028114e-01 5.288990079505500930e+00 5.376445263785211814e+00 1.856494153656260027e+00 3.542110315724465774e+00 4.350697187521297415e+00 2.497647252543803820e+00 1.756780323334326210e+00 4.312120684415623018e+00 3.723777244609628667e+00 3.515890405553400377e+00 2.151537091345113506e+00 2.507233395324406366e+00 5.280560246606060382e+00 3.223185297926796977e+00 1.867990404922022174e+00 3.519850240741472014e+00 2.163137178170020825e+00 2.494753600019215423e+00 1.783590246163563542e+00 1.085435172671263659e+00 1.867496369806892487e+00 7.038580165486941098e+00 3.208141701696592296e+00 6.499603305132997111e-01 5.251980157187793985e+00 2.154870683980360635e+00 3.724033503672531165e+00 3.549140329663860616e+00 6.474030609755293320e+00 3.740570730684654954e+00 7.023230482769077021e+00 2.179739794881403459e+00 1.452319436863291034e-02 7.027670077688315864e+00 3.269331808426597874e+00 6.445703899711908713e-01 1.774140158973483095e+00
1.095501707131571800e+00 6.095167003068133749e-01 1.761180080093715183e+00 3.247165248415438743e+00 1.893620095304042517e+00 7.041080243332254796e+00 4.316016992923848328e+00 2.473257113367627547e+00 5.275320320451545975e+00 1.076361585807544596e+00 6.104865153815004497e-01 5.289180079486349051e+00 5.376325252152686751e+00 1.852484154016841300e+00 3.541930315446909727e+00 4.351367192974758602e+00 2.499507250705482075e+00 1.755220323484684375e+00 4.310690686416574380e+00 3.724447248869202198e+00 3.514290405548752272e+00 2.146357095295988504e+00 2.508613410253484943e+00 5.282110246517857988e+00 3.221095294337627646e+00 1.866710411232189060e+00 3.516270240580683382e+00 2.165217179378317702e+00 2.495163594017544284e+00 1.783070246264698566e+00 1.085885174208157444e+00 1.868026368498057588e+00 7.038620165538901574e+00 3.205981692542063666e+00 6.468203367035550988e-01 5.253140156897759816e+00 2.154240685519902776e+00 3.724553505559698330e+00 3.548280329677137690e+00 4.312569755257392501e+00 8.270041491715490268e-04 7.024270151802485707e+00 2.182379795907980924e+00 1.488318667069541551e-02 7.028190077805748004e+00 3.270661810607487396e+00 6.453103861749905912e-01 1.773200159070722037e+00
1.098071701215471263e+00 6.074766928570455304e-01 1.761040080045092715e+00 3.248155498470104874e+00 1.894430572272884472e+00 1.430243422322636810e-03 4.318887000379797669e+00 2.475857104862381863e+00 5.277890320729755835e+00 1.076211585278769034e+00 6.103065158046008243e-01 5.289360079468801601e+00 5.376455239550213427e+00 1.848134153684527270e+00 3.541270315154975368e+00 4.351867198955239324e+00 2.501547249369439285e+00 1.753530323641329991e+00 4.309200688858175532e+00 3.725267253313147453e+00 3.512540405552217582e+00 2.140737098977551156e+00 2.509903426443968577e+00 5.283890246408038394e+00 3.218975290468768513e+00 1.865330417649879502e+00 3.512390240412022635e+00 2.167477180836754336e+00 2.495653587528192663e+00 1.782040246377620596e+00 1.086395175708637195e+00 1.868546367000760267e+00 7.038870165592291173e+00 3.204031681594162961e+00 6.430703422399908220e-01 5.254950156573534592e+00 2.153440687864924818e+00 3.725343507982542768e+00 3.546800329702837207e+00 4.311059759815658587e+00 2.417008422135571728e-03 7.025880151857733402e+00 2.184999796630588520e+00 1.514317900422402878e-02 7.029100077915658495e+00 3.271851812077541499e+00 6.458003828137638402e-01 1.771840159145994020e+00
1.100821695479498930e+00 6.054966848964226100e-01 1.760730080006893683e+00 3.249165500535754703e+00 1.895180569126003522e+00 4.590243508983407432e-03 4.321717009218021488e+00 2.478937096452101585e+00 5.280770321039276460e+00 1.075911584895468787e+00 6.101765166637512783e-01 5.289530079449384026e+00 5.376775226182372691e+00 1.843514152836192022e+00 3.540090314851322972e+00 4.352247205316206013e+00 2.503717248387825833e+00 1.751750323802614417e+00 4.307690691506818048e+00 3.726157257822639401e+00 3.510680405559750472e+00 2.134837102188036351e+00 2.511033443434189660e+00 5.285860246277460206e+00 3.216905286402367725e+00 1.863880423933353070e+00 3.508350240240349915e+00 2.169887182488692279e+00 2.496203580640961928e+00 1.780460246499910193e+00 1.086995177083869502e+00 1.869026365224520259e+00 7.039380165646122123e+00 3.202351669318690419e+00 6.388703469511854971e-01 5.257370156228136970e+00 2.152410690898977741e+00 3.726363511114531679e+00 3.544710329736120435e+00 4.309659765312028767e+00 4.337012337656561897e-03 7.028050151939345014e+00 2.187509797135246625e+00 1.533317162839502659e-02 7.030430078016928874e+00 3.272931812691285192e+00 6.459903797997557096e-01 1.770070159196946769e+00
1.103711690245037236e+00 6.036866765451319727e-01 1.760190079985208600e+00 3.250165502450651278e+00 1.895880565997241307e+00 7.910243591884164038e-03 4.324287019180815150e+00 2.482407088782144111e+00 5.283860321366231183e+00 1.075421584598187819e+00 6.100765180723238812e-01 5.289730079425325471e+00 5.377265212456564747e+00 1.838764151531929070e+00 3.538360314544790164e+00 4.352587211881752793e+00 2.505957247525036902e+00 1.749930323967263002e+00 4.306200694070145829e+00 3.727017262277490417e+00 3.508770405565942774e+00 2.128857104755054852e+00 2.511943460647066750e+00 5.287970246129071406e+00 3.214925282248188854e+00 1.862400429954242265e+00 3.504330240069799096e+00 2.172347184305457812e+00 2.496803573646778851e+00 1.778320246627367096e+00 1.087685178157595800e+00 1.869406363165246887e+00 7.040210165696302091e+00 3.201011656297545915e+00 6.344203506366923317e-01 5.260360155877662258e+00 6.470910694458740231e+00 3.727550977030096302e+00 3.542010481771823649e+00 4.308499771717130500e+00 6.577015517733287089e-03 7.030790152051212161e+00 2.189819797480355934e+00 1.547316480511125650e-02 7.032170078107752964e+00 3.273911812448014214e+00 6.458803771025781737e-01 1.767910159223931910e+00
1.106671685774011316e+00 6.021366680077090416e-01 1.759400079983708842e+00 3.251135504306090773e+00 1.896560562952826379e+00 1.127024367236606137e-02 4.326377029923051509e+00 2.486147082497187188e+00 5.287070321694701036e+00 1.074661584242154522e+00 6.099565202631973548e-01 5.289950079390404625e+00 5.377855198779486479e+00 1.834024149975590934e+00 3.536070314242458323e+00 4.352957218387841998e+00 2.508177246572447228e+00 1.748150324131603650e+00 4.304790696169079389e+00 3.727717266500145676e+00 3.506860405564043326e+00 2.123017106448871427e+00 2.512553477448828954e+00 5.290150245965160813e+00 3.213095278174748159e+00 1.860950435527493285e+00 3.500490239906571155e+00 2.174817186315018969e+00 2.497463566659697598e+00 1.775650246759266082e+00 1.088505178784341165e+00 1.869636360706160572e+00 7.041370165740832299e+00 3.200091643142354947e+00 6.299303530684036145e-01 5.263860155539238583e+00 6.469300698288603435e+00 3.728830981925260080e+00 3.538750481802421799e+00 4.307679779003342091e+00 9.127017674846414283e-03 7.034060152196174975e+00 2.191809797665564830e+00 1.556315888198614265e-02 7.034330078183908874e+00 3.274831811288976269e+00 6.454503746047698387e-01 1.765380159226993539e+00
1.109671682386395464e+00 6.009566593725901296e-01 1.758340080008836903e+00 3.252055506252827133e+00 1.897270560061713907e+00 1.451024375313350948e-02 4.327777041013587400e+00 2.490007078214925951e+00 5.290280322007070879e+00 1.073581583855690802e+00 6.098265233801312135e-01 5.290210079343542482e+00 1.058725185517629619e+00 1.829426686266893309e+00 3.533220161952152161e+00 4.353417224541062502e+00 2.510277245349775921e+00 1.746500324290931605e+00 4.303510697539582708e+00 3.728167270340028150e+00 3.505030405549677930e+00 2.117557107069128808e+00 2.512793493148339774e+00 5.292320245789400524e+00 3.211485274319429539e+00 1.859580440434937865e+00 3.497050239756537504e+00 2.177207188430303919e+00 2.498153559940939239e+00 1.772450246890394876e+00 1.089455426680641992e+00 1.869686837883124175e+00 3.701657776896183686e-04 3.199631630522795867e+00 6.256303541343095631e-01 5.267810155229951441e+00 6.467340702224190885e+00 3.730140987872410996e+00 3.534960481822749134e+00 4.307299787114374112e+00 1.196701852215828650e-02 7.037810152376387407e+00 2.193389797808027897e+00 1.564315412228570179e-02 7.036880078244957204e+00 3.275701809183034552e+00 6.446903722732161279e-01 1.762540159205802093e+00
1.112641680343763317e+00 6.002366508436285386e-01 1.757000080064264003e+00 3.252895508353482956e+00 1.898030557419838393e+00 1.750024383449416687e-02 4.328267052108700774e+00 2.493867076582763520e+00 5.293360322287421482e+00 1.072131583323050030e+00 6.096465275689300078e-01 5.290500079280251455e+00 1.059385173214386411e+00 1.825146684582360512e+00 3.529830161683638057e+00 4.354027230077376132e+00 2.512167243677422501e+00 1.745060324441223498e+00 4.302410697800818973e+00 3.728237273645201633e+00 3.503380405515743590e+00 2.112697106444142214e+00 2.512603507111830226e+00 5.294410245605441823e+00 3.210145270851101351e+00 1.858350444521228439e+00 3.494160239625546893e+00 2.179457190620528451e+00 2.498863553661242687e+00 1.768770247017960484e+00 1.090565426178061292e+00 1.869536834531204450e+00 2.280165806522450617e-03 3.199691619080926586e+00 6.217403536670783604e-01 5.272110154966909157e+00 6.465010706001466545e+00 3.731390994924145055e+00 3.530720481825967649e+00 4.307479795936242972e+00 1.505701771546378263e-02 7.041980152593342979e+00 2.194469797938178424e+00 1.572315078995769472e-02 7.039780078288412568e+00 3.276541806215503616e+00 6.436303700464598432e-01 1.759440159163106143e+00
4.204110000000000014e+00 2.584870000000000001e+00 1.787320000000000020e+00 4.285940000000000083e+00 7.401000000000000634e-02 3.572350000000000136e+00 4.318340000000000067e+00 3.960480000000000000e+00 7.147269999999999790e+00 2.193960000000000132e+00 7.721999999999999698e-02 3.572919999999999874e+00 3.269460000000000033e+00 7.394100000000000117e-01 5.362470000000000070e+00 1.166230000000000100e+00 7.342899999999999983e-01 5.365779999999999994e+00 2.092600000000000016e+00 2.586609999999999854e+00 1.784960000000000102e+00 4.203730000000000189e+00 4.930000000000000354e-03 1.619999999999999912e-03 3.206820000000000004e+00 1.981619999999999937e+00 3.574190000000000200e+00 4.286059999999999981e+00 2.648080000000000211e+00 5.368330000000000268e+00 5.390559999999999796e+00 2.044639999999999791e+00 7.147549999999999848e+00 2.195669999999999789e+00 2.655040000000000067e+00 5.359670000000000378e+00 3.194179999999999797e+00 6.747900000000000009e-01 1.792079999999999895e+00 1.104260000000000019e+00 1.978580000000000005e+00 3.571899999999999853e+00 1.079169999999999963e+00 6.710500000000000353e-01 1.790180000000000105e+00 3.121440000000000214e+00 1.903200000000000003e+00 9.600000000000000243e-04
4.208120000000000083e+00 2.583419999999999828e+00 1.786659999999999915e+00 4.284900000000000375e+00 7.502000000000000335e-02 3.568229999999999791e+00 4.320330000000000226e+00 3.959589999999999943e+00 7.144650000000000389e+00 2.193620000000000125e+00 7.743999999999999495e-02 3.575279999999999792e+00 3.267139999999999933e+00 7.415000000000000480e-01 5.362860000000000404e+00 1.163669999999999982e+00 7.331699999999999884e-01 5.363640000000000185e+00 2.096519999999999939e+00 2.587120000000000086e+00 1.780680000000000041e+00 4.206199999999999939e+00 2.020000000000000094e-03 3.200000000000000153e-03 3.206189999999999873e+00 1.982099999999999973e+00 3.576519999999999921e+00 4.285499999999999865e+00 2.649290000000000145e+00 5.364799999999999791e+00 5.386420000000000208e+00 2.048470000000000013e+00 7.150140000000000384e+00 2.196219999999999839e+00 2.654250000000000220e+00 5.360059999999999825e+00 3.193630000000000191e+00 6.731700000000000461e-01 1.792340000000000044e+00 1.104710000000000081e+00 1.977219999999999978e+00 3.576229999999999798e+00 1.076589999999999936e+00 6.696699999999999875e-01 1.791579999999999950e+00 3.122770000000000046e+00 1.905359999999999943e+00 2.710000000000000169e-03
4.212049999999999628e+00 2.582329999999999792e+00 1.786030000000000006e+00 4.283990000000000187e+00 7.560999999999999666e-02 3.564369999999999816e+00 4.321909999999999918e+00 3.958540000000000170e+00 7.142290000000000028e+00 2.192950000000000177e+00 7.717000000000000248e-02 3.577719999999999789e+00 3.264979999999999993e+00 7.437200000000000477e-01 5.363170000000000215e+00 1.161270000000000024e+00 7.324500000000000455e-01 5.361430000000000362e+00 2.100680000000000103e+00 2.587670000000000137e+00 1.776459999999999928e+00 2.036939999999999973e+00 3.823570000000000135e+00 4.720000000000000237e-03 3.205509999999999859e+00 1.982590000000000074e+00 3.578780000000000072e+00 4.285339999999999705e+00 2.650760000000000005e+00 5.361100000000000421e+00 5.210510000000000197e+00 1.912900000000000045e+00 2.060000000000000199e-03 2.196450000000000014e+00 2.653630000000000155e+00 5.360509999999999664e+00 3.192810000000000148e+00 6.718300000000000383e-01 1.792410000000000059e+00 1.105040000000000022e+00 1.975810000000000066e+00 3.580639999999999823e+00 1.074510000000000076e+00 6.685100000000000486e-01 1.792769999999999975e+00 3.123749999999999805e+00 1.907459999999999933e+00 4.499999999999999660e-03
4.215869999999999784e+00 2.581620000000000026e+00 1.785560000000000036e+00 4.283190000000000275e+00 7.570999999999999952e-02 3.560839999999999783e+00 4.323039999999999772e+00 3.957450000000000134e+00 7.140220000000000233e+00 2.191959999999999908e+00 7.641000000000000569e-02 3.580140000000000100e+00 3.263049999999999784e+00 7.460200000000000164e-01 5.363419999999999632e+00 1.159010000000000096e+00 7.321600000000000330e-01 5.359239999999999782e+00 2.105020000000000113e+00 2.588179999999999925e+00 1.772469999999999990e+00 2.039520000000000000e+00 3.819939999999999891e+00 6.130000000000000032e-03 3.204790000000000028e+00 1.983090000000000019e+00 3.580859999999999932e+00 4.285580000000000389e+00 2.652460000000000040e+00 5.357350000000000279e+00 5.207040000000000113e+00 1.916099999999999914e+00 4.440000000000000370e-03 2.196309999999999985e+00 2.653200000000000003e+00 5.361060000000000159e+00 3.191660000000000164e+00 6.707899999999999974e-01 1.792280000000000095e+00 1.105259999999999909e+00 1.974390000000000089e+00 3.584989999999999899e+00 1.073029999999999928e+00 6.676199999999999912e-01 1.793709999999999916e+00 3.124340000000000117e+00 1.909389999999999921e+00 6.270000000000000399e-03
4.219560000000000421e+00 2.581269999999999953e+00 1.785330000000000084e+00 4.282449999999999868e+00 7.530000000000000582e-02 3.557710000000000150e+00 4.323739999999999917e+00 3.956409999999999982e+00 7.138460000000000250e+00 2.190669999999999895e+00 7.519000000000000683e-02 3.582479999999999887e+00 3.261390000000000011e+00 7.483899999999999997e-01 5.363629999999999676e+00 1.156859999999999999e+00 7.323100000000000165e-01 5.357149999999999856e+00 2.109500000000000153e+00 2.588589999999999947e+00 1.768829999999999902e+00 2.042110000000000092e+00 3.816139999999999866e+00 7.360000000000000223e-03 3.204029999999999934e+00 1.983579999999999899e+00 3.582669999999999799e+00 4.286200000000000010e+00 2.654370000000000118e+00 5.353650000000000020e+00 5.204049999999999621e+00 1.918789999999999996e+00 6.579999999999999911e-03 2.195800000000000196e+00 2.653000000000000025e+00 5.361729999999999663e+00 3.190179999999999794e+00 6.700800000000000090e-01 1.791970000000000063e+00 1.105399999999999938e+00 1.972990000000000022e+00 3.589129999999999932e+00 1.072219999999999951e+00 6.670399999999999663e-01 1.794380000000000086e+00 3.124519999999999964e+00 1.911059999999999981e+00 7.929999999999999549e-03