-2.053578643999999898e+01
-2.053033676000000085e+01
-2.051479827000000000e+01
-2.049149566999999905e+01
-2.046383520999999917e+01
-2.043569025000000039e+01
-2.041075389999999956e+01
-2.039198264999999921e+01
-2.038118489000000011e+01
-2.037879751999999911e+01
-2.038383960000000172e+01
-2.039404927000000001e+01
-2.040619402000000093e+01
-2.041654404999999883e+01
-2.042147981000000101e+01
-2.041815882999999943e+01
-2.040512611000000120e+01
-2.038270697000000098e+01
-2.035305278999999956e+01
-2.031975601999999981e+01
-2.208565429000000080e+01
-2.207939170999999945e+01
-2.206724591000000046e+01
-2.205091267999999971e+01
-2.203273967999999883e+01
-2.201527881000000164e+01
-2.200093053999999881e+01
-2.199152978000000047e+01
-2.198818848999999886e+01
-2.199109380000000158e+01
-2.199954784000000174e+01
-2.201211165000000136e+01
-2.202681344000000152e+01
-2.204150518000000147e+01
-2.205423983000000021e+01
-2.206366196000000102e+01
-2.206923073999999829e+01
-2.207130129999999824e+01
-2.207092387000000144e+01
-2.206946157999999869e+01
-2.507912865999999852e+01
-2.506926535999999928e+01
-2.505107231999999939e+01
-2.502758483999999939e+01
-2.500245427999999848e+01
-2.497932271000000171e+01
-2.496124086000000020e+01
-2.495019179999999892e+01
-2.494679316999999941e+01
-2.495023263999999941e+01
-2.495834311999999855e+01
-2.496792066000000077e+01
-2.497519369999999839e+01
-2.497652738000000028e+01
-2.496914255000000082e+01
-2.495184615999999878e+01
-2.492545299000000014e+01
-2.489290636000000134e+01
-2.485891416000000120e+01
-2.482910912999999908e+01
-1.992950481000000096e+01
-1.993205667000000147e+01
-1.992504097999999857e+01
-1.990961384999999950e+01
-1.988817398999999853e+01
-1.986383136999999977e+01
-1.983993962999999994e+01
-1.981952174999999983e+01
-1.980485812999999951e+01
-1.979723351000000164e+01
-1.979682271000000071e+01
-1.980265564999999839e+01
-1.981282554999999945e+01
-1.982473790999999963e+01
-1.983547579000000027e+01
-1.984228192999999862e+01
-1.984303311000000036e+01
-1.983669268999999957e+01
-1.982352643000000114e+01
-1.980509119999999967e+01
-1.705371893999999955e+01
-1.705114611000000124e+01
-1.704180799999999962e+01
-1.702786992000000055e+01
-1.701246155999999843e+01
-1.699906091000000075e+01
-1.699073373999999959e+01
-1.698962965999999852e+01
-1.699641636999999861e+01
-1.701030032999999975e+01
-1.702904141000000138e+01
-1.704947625000000144e+01
-1.706814044000000052e+01
-1.708203553999999968e+01
-1.708942572000000126e+01
-1.709017140999999995e+01
-1.708581081999999896e+01
-1.707904007999999862e+01
-1.707296939000000080e+01
-1.707026301000000146e+01
-1.361244693999999988e+01
-1.361071577000000055e+01
-1.360063698000000088e+01
-1.358491919000000081e+01
-1.356712450999999930e+01
-1.355086967999999992e+01
-1.353909950000000073e+01
-1.353345161000000019e+01
-1.353400753000000023e+01
-1.353931970999999912e+01
-1.354677500000000023e+01
-1.355317162999999958e+01
-1.355549670000000084e+01
-1.355162278999999970e+01
-1.354087447999999938e+01
-1.352424689999999963e+01
-1.350412148000000023e+01
-1.348377039000000011e+01
-1.346648543999999958e+01
-1.345480919000000064e+01
-1.890187290000000075e+01
-1.889802480000000173e+01
-1.888447245000000052e+01
-1.886312763999999831e+01
-1.883708322000000024e+01
-1.881002343000000110e+01
-1.878551132999999851e+01
-1.876638871000000108e+01
-1.875433888999999965e+01
-1.874965080999999856e+01
-1.875116355000000112e+01
-1.875655546999999856e+01
-1.876272138999999939e+01
-1.876638821999999962e+01
-1.876481100000000168e+01
-1.875642862000000122e+01
-1.874137514999999965e+01
-1.872166162999999983e+01
-1.870085227999999944e+01
-1.868333970999999849e+01
-1.372622046999999945e+01
-1.371843263999999962e+01
-1.370016017000000019e+01
-1.367451518999999927e+01
-1.364610859999999981e+01
-1.362008900999999916e+01
-1.360107142999999930e+01
-1.359228734999999944e+01
-1.359495596999999911e+01
-1.360803188999999946e+01
-1.362834531999999932e+01
-1.365108513000000023e+01
-1.367072882000000078e+01
-1.368225254999999940e+01
-1.368237659000000050e+01
-1.367059326999999946e+01
-1.364946967000000022e+01
-1.362413328000000057e+01
-1.360095905000000016e+01
-1.358578462999999914e+01
-1.454134129999999914e+01
-1.454057610999999994e+01
-1.453124262999999949e+01
-1.451508849999999917e+01
-1.449474471999999992e+01
-1.447331153000000015e+01
-1.445379424999999962e+01
-1.443865933000000012e+01
-1.442949551999999969e+01
-1.442681578000000009e+01
-1.443001712999999953e+01
-1.443749560000000010e+01
-1.444688264000000011e+01
-1.445543709000000021e+01
-1.446050282000000031e+01
-1.446002172000000030e+01
-1.445291019000000077e+01
-1.443930512000000022e+01
-1.442055251000000027e+01
-1.439892311000000014e+01
-2.193670828999999856e+01
-2.192235704999999868e+01
-2.190128350000000168e+01
-2.187590549999999823e+01
-2.184924615999999986e+01
-2.182440586999999965e+01
-2.180416832999999954e+01
-2.179063027000000119e+01
-2.178489678000000040e+01
-2.178696532000000019e+01
-2.179571084999999897e+01
-2.180897004999999922e+01
-2.182377792000000127e+01
-2.183680448999999868e+01
-2.184487033999999994e+01
-2.184558282000000062e+01
-2.183794711000000177e+01
-2.182273342999999954e+01
-2.180248955000000066e+01
-2.178108873000000045e+01
-3.239784447000000256e+01
-3.239361176999999969e+01
-3.238141808000000310e+01
-3.236270233999999846e+01
-3.233961314999999814e+01
-3.231469060999999954e+01
-3.229052296999999783e+01
-3.226943519999999666e+01
-3.225323600000000113e+01
-3.224304608999999999e+01
-3.223919616999999960e+01
-3.224119517999999829e+01
-3.224776070000000061e+01
-3.225691559999999924e+01
-3.226615821000000039e+01
-3.227271766999999869e+01
-3.227389567000000170e+01
-3.226747301000000334e+01
-3.225212688999999955e+01
-3.222778303999999849e+01
-2.812717900999999898e+01
-2.811749758999999926e+01
-2.810119455999999971e+01
-2.808006436000000150e+01
-2.805667605000000009e+01
-2.803399497999999923e+01
-2.801493284000000017e+01
-2.800193452999999977e+01
-2.799665681000000106e+01
-2.799975012000000163e+01
-2.801072239999999880e+01
-2.802795551999999901e+01
-2.804881712999999976e+01
-2.806999410999999967e+01
-2.808793842000000041e+01
-2.809949278999999933e+01
-2.810253587000000053e+01
-2.809652438999999902e+01
-2.808266317000000001e+01
-2.806369875000000036e+01
-3.831284162000000038e+01
-3.830935069000000226e+01
-3.829921855999999991e+01
-3.828352854999999977e+01
-3.826399342999999931e+01
-3.824265376999999688e+01
-3.822164595000000276e+01
-3.820294066999999671e+01
-3.818813482000000192e+01
-3.817828716999999727e+01
-3.817381824000000279e+01
-3.817445342999999980e+01
-3.817925881000000032e+01
-3.818668098999999927e+01
-3.819467860999999687e+01
-3.820098961000000060e+01
-3.820335986999999989e+01
-3.819996181999999862e+01
-3.818971159000000171e+01
-3.817263263000000251e+01
-2.473002697000000083e+01
-2.472659506000000107e+01
-2.471627704999999864e+01
-2.470028020999999896e+01
-2.468048526999999837e+01
-2.465910982000000118e+01
-2.463838198999999918e+01
-2.462025872999999976e+01
-2.460618429999999890e+01
-2.459695075000000131e+01
-2.459266885999999985e+01
-2.459273822999999837e+01
-2.459600942000000146e+01
-2.460089203000000069e+01
-2.460562927999999872e+01
-2.460849366000000060e+01
-2.460808743999999848e+01
-2.460355189999999936e+01
-2.459474464999999910e+01
-2.458224481999999966e+01
-4.012608405000000289e+01
-4.012119925999999737e+01
-4.010909397000000354e+01
-4.009100872999999865e+01
-4.006879458000000227e+01
-4.004466216000000145e+01
-4.002094899000000083e+01
-3.999984691000000225e+01
-3.998317080000000345e+01
-3.997221565000000254e+01
-3.996761532000000017e+01
-3.996926078999999987e+01
-3.997627351999999945e+01
-3.998698980999999719e+01
-3.999908803999999662e+01
-4.000972171000000088e+01
-4.001583122000000259e+01
-4.001459250999999995e+01
-4.000389461000000324e+01
-3.998288022999999924e+01
-3.732338488999999981e+01
-3.732412716999999702e+01
-3.731739415999999920e+01
-3.730432257999999734e+01
-3.728679766999999856e+01
-3.726720646999999786e+01
-3.724805843000000039e+01
-3.723163428000000152e+01
-3.721970989999999802e+01
-3.721335324999999727e+01
-3.721275310000000047e+01
-3.721721216000000254e+01
-3.722518668000000019e+01
-3.723445444000000037e+01
-3.724238582000000264e+01
-3.724630460000000198e+01
-3.724396380999999678e+01
-3.723397512999999748e+01
-3.721616714000000314e+01
-3.719174023000000062e+01
-3.138152214999999856e+01
-3.137960125000000033e+01
-3.137110111000000146e+01
-3.135698225999999877e+01
-3.133881747999999945e+01
-3.131854846999999964e+01
-3.129820661999999842e+01
-3.127966031000000058e+01
-3.126438113000000030e+01
-3.125328663000000162e+01
-3.124664997000000000e+01
-3.124409392000000096e+01
-3.124465676999999886e+01
-3.124689344000000091e+01
-3.124909034999999946e+01
-3.124950420000000051e+01
-3.124667896000000056e+01
-3.123971003999999851e+01
-3.122848623000000146e+01
-3.121384073000000114e+01
-2.721339170999999979e+01
-2.721934832000000171e+01
-2.721499242999999879e+01
-2.720205918999999994e+01
-2.718373701000000153e+01
-2.716400429999999844e+01
-2.714687961999999999e+01
-2.713574472999999898e+01
-2.713281261999999927e+01
-2.713873986000000116e+01
-2.715254880000000171e+01
-2.717179206999999863e+01
-2.719291063000000008e+01
-2.721186558000000133e+01
-2.722488506999999913e+01
-2.722919184999999942e+01
-2.722371170999999990e+01
-2.720924585999999934e+01
-2.718828601999999961e+01
-2.716440228000000090e+01
-3.281793473999999833e+01
-3.281535021999999913e+01
-3.280438474999999698e+01
-3.278621722999999832e+01
-3.276288450999999924e+01
-3.273699193000000207e+01
-3.271133734000000004e+01
-3.268858583000000095e+01
-3.267092780000000118e+01
-3.265988744999999938e+01
-3.265614518000000288e+01
-3.265947256999999837e+01
-3.266872364999999689e+01
-3.268189624000000038e+01
-3.269629974000000061e+01
-3.270880414999999886e+01
-3.271626619999999974e+01
-3.271598699999999837e+01
-3.270629301999999683e+01
-3.268695968000000107e+01
-2.963936874999999915e+01
-2.963871054000000171e+01
-2.963156788999999947e+01
-2.961898927000000015e+01
-2.960256856999999897e+01
-2.958414979999999872e+01
-2.956559593000000064e+01
-2.954851943999999975e+01
-2.953409694999999857e+01
-2.952296424000000030e+01
-2.951519236000000035e+01
-2.951034338999999918e+01
-2.950757066999999978e+01
-2.950579627000000116e+01
-2.950390080000000026e+01
-2.950091809999999981e+01
-2.949623592000000016e+01
-2.948968640000000008e+01
-2.948161023000000114e+01
-2.947277959999999908e+01
-4.136325654000000185e+01
-4.135963395999999648e+01
-4.134909288000000060e+01
-4.133257401000000186e+01
-4.131151672000000019e+01
-4.128769186000000246e+01
-4.126301534000000260e+01
-4.123937587999999721e+01
-4.121848674000000301e+01
-4.120177266000000316e+01
-4.119028619000000191e+01
-4.118464740000000290e+01
-4.118499668999999841e+01
-4.119095407999999736e+01
-4.120158324999999877e+01
-4.121536532999999736e+01
-4.123019831999999951e+01
-4.124345517999999799e+01
-4.125213765000000166e+01
-4.125317146999999807e+01
-4.185676897999999824e+01
-4.185705719999999985e+01
-4.185003471999999647e+01
-4.183625895000000128e+01
-4.181699378999999794e+01
-4.179406981999999715e+01
-4.176960071999999968e+01
-4.174579133000000297e+01
-4.172467071999999888e+01
-4.170790552999999790e+01
-4.169666707999999744e+01
-4.169147959000000014e+01
-4.169218560000000195e+01
-4.169789380999999651e+01
-4.170696145000000143e+01
-4.171710648999999904e+01
-4.172552438999999680e+01
-4.172917432999999932e+01
-4.172515088000000105e+01
-4.171121010000000240e+01
-4.341051956999999817e+01
-4.340672799000000026e+01
-4.339646630000000016e+01
-4.338080126999999919e+01
-4.336131270999999998e+01
-4.333987070999999958e+01
-4.331840626999999699e+01
-4.329873060999999979e+01
-4.328231592000000205e+01
-4.327019466000000136e+01
-4.326285277000000207e+01
-4.326019756000000172e+01
-4.326156880999999998e+01
-4.326572717999999895e+01
-4.327097675000000265e+01
-4.327528431000000353e+01
-4.327647899000000109e+01
-4.327254780999999895e+01
-4.326191963000000129e+01
-4.324385429000000158e+01
-3.504857791999999961e+01
-3.504492162999999749e+01
-3.503556353999999828e+01
-3.502138098000000355e+01
-3.500374518000000279e+01
-3.498436342000000110e+01
-3.496502047999999974e+01
-3.494740067000000039e+01
-3.493284720999999848e+01
-3.492227907000000187e+01
-3.491607144999999690e+01
-3.491402062000000228e+01
-3.491532400999999908e+01
-3.491869318999999905e+01
-3.492242736000000036e+01
-3.492460429999999860e+01
-3.492332245000000057e+01
-3.491695036000000130e+01
-3.490442642000000006e+01
-3.488549505999999667e+01
-4.726906888999999978e+01
-4.726806700000000205e+01
-4.726292222000000010e+01
-4.725400789999999773e+01
-4.724195562999999964e+01
-4.722755157000000281e+01
-4.721170027000000147e+01
-4.719530830000000066e+01
-4.717925495000000069e+01
-4.716429200999999694e+01
-4.715101762999999835e+01
-4.713985965999999905e+01
-4.713102503999999726e+01
-4.712453465000000108e+01
-4.712020182999999918e+01
-4.711763925000000341e+01
-4.711629347000000223e+01
-4.711544382000000297e+01
-4.711428403000000031e+01
-4.711195628000000113e+01
-3.918795044000000161e+01
-3.918439084999999977e+01
-3.917282804999999968e+01
-3.915473405000000184e+01
-3.913232676999999882e+01
-3.910827153000000322e+01
-3.908529588999999760e+01
-3.906589715999999868e+01
-3.905200272999999811e+01
-3.904478782000000336e+01
-3.904452290999999775e+01
-3.905052247999999793e+01
-3.906111841999999967e+01
-3.907378106000000173e+01
-3.908534324000000026e+01
-3.909233040000000159e+01
-3.909148417000000109e+01
-3.908032155000000074e+01
-3.905776536999999848e+01
-3.902456773000000112e+01
-3.968090515000000096e+01
-3.967758187999999819e+01
-3.966911161000000163e+01
-3.965646849000000174e+01
-3.964105845000000272e+01
-3.962446958999999680e+01
-3.960825716000000085e+01
-3.959381653999999884e+01
-3.958218270999999788e+01
-3.957392730000000114e+01
-3.956911961000000133e+01
-3.956736674999999792e+01
-3.956782799999999867e+01
-3.956934438999999770e+01
-3.957060288000000270e+01
-3.957028113999999874e+01
-3.956725149999999758e+01
-3.956076826999999696e+01
-3.955064297999999923e+01
-3.953724452000000156e+01
-4.260156590999999793e+01
-4.259927968000000220e+01
-4.259138056999999833e+01
-4.257871832000000012e+01
-4.256254134000000278e+01
-4.254439739000000031e+01
-4.252592592999999965e+01
-4.250870573000000263e+01
-4.249408179999999646e+01
-4.248306407999999834e+01
-4.247621825000000229e+01
-4.247367038000000150e+01
-4.247501571000000098e+01
-4.247939163000000207e+01
-4.248550159999999920e+01
-4.249171284999999898e+01
-4.249621617999999756e+01
-4.249724055000000078e+01
-4.249324917999999940e+01
-4.248326753999999994e+01
-3.833922468000000094e+01
-3.833476105999999817e+01
-3.832468510000000350e+01
-3.830970091999999738e+01
-3.829102876000000322e+01
-3.827029731999999740e+01
-3.824928366000000324e+01
-3.822976075999999779e+01
-3.821328981999999996e+01
-3.820108280000000178e+01
-3.819390872000000314e+01
-3.819200724000000235e+01
-3.819507002999999656e+01
-3.820221880999999797e+01
-3.821205994000000317e+01
-3.822276107999999795e+01
-3.823222202000000181e+01
-3.823826511000000039e+01
-3.823898124000000109e+01
-3.823304745000000082e+01
-4.345916284999999846e+01
-4.345573862999999903e+01
-4.344666697000000255e+01
-4.343277106000000032e+01
-4.341528766999999789e+01
-4.339570298999999665e+01
-4.337560289000000324e+01
-4.335651344000000051e+01
-4.333976824999999877e+01
-4.332639886999999845e+01
-4.331705168999999955e+01
-4.331192808000000127e+01
-4.331077015000000330e+01
-4.331282155000000245e+01
-4.331686942999999701e+01
-4.332130019000000232e+01
-4.332418686999999835e+01
-4.332346103999999798e+01
-4.331715169999999659e+01
-4.330365997999999905e+01
-4.871913582999999903e+01
-4.872125546000000185e+01
-4.871877994999999828e+01
-4.871203634999999821e+01
-4.870176332999999858e+01
-4.868895399000000168e+01
-4.867480142000000143e+01
-4.866055503999999843e+01
-4.864744100000000060e+01
-4.863653639999999712e+01
-4.862871211000000216e+01
-4.862453672000000182e+01
-4.862425326000000325e+01
-4.862774393000000117e+01
-4.863454698000000320e+01
-4.864383629000000298e+01
-4.865447484999999972e+01
-4.866511544000000100e+01
-4.867430611000000340e+01
-4.868066115999999965e+01
-4.956067209999999790e+01
-4.955682618000000161e+01
-4.954870109000000156e+01
-4.953693365000000171e+01
-4.952241374999999834e+01
-4.950617216999999926e+01
-4.948929353999999847e+01
-4.947283476999999863e+01
-4.945776266000000021e+01
-4.944489516000000151e+01
-4.943484380999999672e+01
-4.942801519000000354e+01
-4.942456156000000078e+01
-4.942439406999999818e+01
-4.942715268999999978e+01
-4.943220445000000041e+01
-4.943867756000000213e+01
-4.944545200999999679e+01
-4.945125082999999933e+01
-4.945471402999999810e+01
-4.481059591999999725e+01
-4.480839757999999762e+01
-4.480094357000000116e+01
-4.478896446000000253e+01
-4.477362708999999796e+01
-4.475642040000000321e+01
-4.473897380999999740e+01
-4.472288146000000353e+01
-4.470956032000000135e+01
-4.470011311999999748e+01
-4.469524000999999913e+01
-4.469515236000000158e+01
-4.469955017000000197e+01
-4.470760231999999945e+01
-4.471798371999999944e+01
-4.472897144000000225e+01
-4.473859724999999798e+01
-4.474487853000000115e+01
-4.474609146000000237e+01
-4.474108434000000045e+01
-5.187035885000000235e+01
-5.186732178999999832e+01
-5.186021310000000284e+01
-5.184951585999999679e+01
-5.183591701000000285e+01
-5.182025209999999760e+01
-5.180342647999999883e+01
-5.178637230999999730e+01
-5.176995750999999757e+01
-5.175495818000000270e+01
-5.174199801000000321e+01
-5.173153615999999744e+01
-5.172383042999999958e+01
-5.171894634000000224e+01
-5.171670592000000255e+01
-5.171669190000000071e+01
-5.171825522999999691e+01
-5.172050854999999814e+01
-5.172235408000000234e+01
-5.172253881000000320e+01
-5.156550258000000042e+01
-5.156351357999999863e+01
-5.155679588999999652e+01
-5.154586977999999675e+01
-5.153154752999999744e+01
-5.151484647000000194e+01
-5.149689058999999958e+01
-5.147882278000000156e+01
-5.146173247000000117e+01
-5.144659484999999677e+01
-5.143417612999999733e+01
-5.142502396999999803e+01
-5.141942511999999965e+01
-5.141735410999999800e+01
-5.141847703999999908e+01
-5.142214183000000105e+01
-5.142733425000000125e+01
-5.143274109000000038e+01
-5.143677189999999655e+01
-5.143767906000000067e+01
-4.787497462999999698e+01
-4.787412453999999684e+01
-4.786732856999999797e+01
-4.785527845000000013e+01
-4.783913545000000056e+01
-4.782038002000000176e+01
-4.780064517000000279e+01
-4.778157785999999874e+01
-4.776467407999999892e+01
-4.775117019999999712e+01
-4.774194185999999718e+01
-4.773745816999999647e+01
-4.773769650999999925e+01
-4.774214732000000083e+01
-4.774978985999999992e+01
-4.775913856999999751e+01
-4.776828428999999687e+01
-4.777506638999999922e+01
-4.777726049000000330e+01
-4.777289380999999935e+01
-4.837358181999999829e+01
-4.837308804999999978e+01
-4.836857329000000050e+01
-4.836035440999999935e+01
-4.834900387999999793e+01
-4.833527545999999830e+01
-4.832003109000000052e+01
-4.830418080999999830e+01
-4.828861922000000106e+01
-4.827413425999999674e+01
-4.826138001000000344e+01
-4.825083610000000078e+01
-4.824276692000000111e+01
-4.823723365000000030e+01
-4.823405747999999704e+01
-4.823281925999999942e+01
-4.823290815000000009e+01
-4.823348030999999736e+01
-4.823354435000000251e+01
-4.823202710000000337e+01
-4.259006099999999861e+01
-4.258968947000000327e+01
-4.258322770000000190e+01
-4.257130775000000256e+01
-4.255505688000000220e+01
-4.253595365000000328e+01
-4.251563456000000230e+01
-4.249573626000000104e+01
-4.247772583999999796e+01
-4.246277455999999972e+01
-4.245164549999999792e+01
-4.244466826000000026e+01
-4.244168793000000051e+01
-4.244209116999999765e+01
-4.244484867999999977e+01
-4.244857773999999750e+01
-4.245169204999999835e+01
-4.245251308999999651e+01
-4.244953696000000321e+01
-4.244159243000000004e+01
-4.914683923999999848e+01
-4.914558820999999966e+01
-4.914000529999999856e+01
-4.913061840000000302e+01
-4.911821745000000305e+01
-4.910377753000000212e+01
-4.908836330999999831e+01
-4.907302376999999893e+01
-4.905871948000000060e+01
-4.904625435999999894e+01
-4.903621040000000164e+01
-4.902893507999999656e+01
-4.902448841999999729e+01
-4.902265054000000077e+01
-4.902295329999999751e+01
-4.902465818999999669e+01
-4.902684263999999814e+01
-4.902844094000000297e+01
-4.902835747999999683e+01
-4.902559841000000063e+01
-5.292515869999999722e+01
-5.292099815000000262e+01
-5.291223278999999735e+01
-5.289942073999999650e+01
-5.288335078000000067e+01
-5.286500837999999902e+01
-5.284545219999999688e+01
-5.282574587999999949e+01
-5.280693817000000223e+01
-5.278996980000000150e+01
-5.277566975999999954e+01
-5.276466832999999923e+01
-5.275742733999999956e+01
-5.275419571999999846e+01
-5.275496817999999877e+01
-5.275944581000000255e+01
-5.276702021999999914e+01
-5.277670030000000168e+01
-5.278709689000000083e+01
-5.279641389999999745e+01
-5.516604519999999923e+01
-5.516413511999999741e+01
-5.515933787000000166e+01
-5.515187038999999913e+01
-5.514207031000000114e+01
-5.513038354999999768e+01
-5.511729059999999691e+01
-5.510332168000000053e+01
-5.508900084999999791e+01
-5.507481999000000172e+01
-5.506123353000000265e+01
-5.504861737000000232e+01
-5.503726314000000031e+01
-5.502737675000000195e+01
-5.501905903000000109e+01
-5.501229442000000347e+01
-5.500695870999999926e+01
-5.500279128999999756e+01
-5.499939375999999669e+01
-5.499622004999999803e+01
-4.960865864000000158e+01
-4.960611864999999909e+01
-4.959950214999999929e+01
-4.958915439999999819e+01
-4.957564672000000172e+01
-4.955973570999999822e+01
-4.954227844999999775e+01
-4.952417408000000165e+01
-4.950631600999999904e+01
-4.948950399000000289e+01
-4.947443896000000052e+01
-4.946163776000000212e+01
-4.945147333999999972e+01
-4.944412650000000298e+01
-4.943955574000000297e+01
-4.943752599999999831e+01
-4.943758562000000012e+01
-4.943906502000000103e+01
-4.944107128000000273e+01
-4.944254835000000270e+01
-5.044431586999999695e+01
-5.044356387999999924e+01
-5.043820635000000152e+01
-5.042866741000000275e+01
-5.041570463000000046e+01
-5.040033566999999692e+01
-5.038371947000000262e+01
-5.036705229999999744e+01
-5.035150256000000013e+01
-5.033808777000000134e+01
-5.032764588999999944e+01
-5.032074506000000014e+01
-5.031766549999999683e+01
-5.031838292999999851e+01
-5.032250768000000107e+01
-5.032932757999999751e+01
-5.033778947999999787e+01
-5.034657536000000277e+01
-5.035416414000000174e+01
-5.035898654999999735e+01
-5.250256822000000057e+01
-5.250126781000000165e+01
-5.249588726999999722e+01
-5.248670389000000114e+01
-5.247423656000000136e+01
-5.245916357000000119e+01
-5.244229817000000082e+01
-5.242454501999999650e+01
-5.240679767000000311e+01
-5.238990649000000133e+01
-5.237462699999999671e+01
-5.236158239000000236e+01
-5.235122291999999788e+01
-5.234383084000000252e+01
-5.233944709000000017e+01
-5.233791784999999663e+01
-5.233883206000000143e+01
-5.234154529999999994e+01
-5.234513937999999911e+01
-5.234852338999999688e+01
-5.020040225999999706e+01
-5.019949285999999944e+01
-5.019437927999999971e+01
-5.018545917000000145e+01
-5.017341746000000313e+01
-5.015915121999999826e+01
-5.014363507000000197e+01
-5.012789470999999963e+01
-5.011288431999999915e+01
-5.009942809000000352e+01
-5.008817782999999935e+01
-5.007954920000000243e+01
-5.007372983999999860e+01
-5.007062142000000193e+01
-5.006985105999999774e+01
-5.007078210000000240e+01
-5.007253696000000076e+01
-5.007401557000000025e+01
-5.007401996000000111e+01
-5.007127968999999723e+01
-4.732703553000000340e+01
-4.732752422000000081e+01
-4.732439850000000092e+01
-4.731792538999999920e+01
-4.730857887999999889e+01
-4.729701336000000111e+01
-4.728393630000000059e+01
-4.727009878999999870e+01
-4.725622914000000208e+01
-4.724294009999999844e+01
-4.723075003999999666e+01
-4.721999927000000241e+01
-4.721086632000000094e+01
-4.720336297000000059e+01
-4.719730876999999936e+01
-4.719236890999999900e+01
-4.718806866999999983e+01
-4.718383256999999986e+01
-4.717901952999999793e+01
-4.717298154000000210e+01
-5.478176924000000270e+01
-5.477928026000000017e+01
-5.477269453000000254e+01
-5.476242112999999989e+01
-5.474905110000000263e+01
-5.473334612000000021e+01
-5.471614945000000318e+01
-5.469833227000000164e+01
-5.468074885000000052e+01
-5.466418723000000313e+01
-5.464934043000000230e+01
-5.463676146000000244e+01
-5.462687024000000235e+01
-5.461990815000000055e+01
-5.461593406000000073e+01
-5.461480158999999901e+01
-5.461613409999999647e+01
-5.461929863000000296e+01
-5.462338763000000341e+01
-5.462721082000000195e+01
-5.293442899000000068e+01
-5.293203479999999672e+01
-5.292640446000000054e+01
-5.291797093000000274e+01
-5.290729057000000068e+01
-5.289505891999999676e+01
-5.288198128999999881e+01
-5.286874498000000244e+01
-5.285600657999999896e+01
-5.284429148000000254e+01
-5.283399399999999702e+01
-5.282535941999999807e+01
-5.281845590999999729e+01
-5.281317583999999954e+01
-5.280924351000000172e+01
-5.280621898999999786e+01
-5.280352066999999749e+01
-5.280045494000000161e+01
-5.279627860000000084e+01
-5.279023423999999665e+01
-5.535235638999999708e+01
-5.534919922000000270e+01
-5.534335844999999665e+01
-5.533519361999999830e+01
-5.532513810999999748e+01
-5.531372481999999735e+01
-5.530147423999999745e+01
-5.528893998000000209e+01
-5.527662495999999948e+01
-5.526497245000000191e+01
-5.525435473999999658e+01
-5.524506114999999795e+01
-5.523727310999999673e+01
-5.523105595999999906e+01
-5.522637026999999676e+01
-5.522305343000000022e+01
-5.522084219999999988e+01
-5.521933342999999894e+01
-5.521805344999999932e+01
-5.521642399000000268e+01
-5.371928063000000009e+01
-5.371672207000000299e+01
-5.371106077000000312e+01
-5.370258161999999658e+01
-5.369168226000000033e+01
-5.367888494000000321e+01
-5.366477062999999958e+01
-5.364996080000000234e+01
-5.363506878999999827e+01
-5.362068543000000176e+01
-5.360733634000000336e+01
-5.359548217999999764e+01
-5.358549263999999823e+01
-5.357765763999999820e+01
-5.357212861000000004e+01
-5.356895221999999990e+01
-5.356802289000000172e+01
-5.356910696999999999e+01
-5.357179933999999832e+01
-5.357554239000000251e+01
-5.519807610000000153e+01
-5.519644667000000027e+01
-5.519046105000000324e+01
-5.518050625000000053e+01
-5.516719264999999695e+01
-5.515132719999999722e+01
-5.513382748000000078e+01
-5.511569338999999701e+01
-5.509792218999999847e+01
-5.508144267000000127e+01
-5.506709223000000009e+01
-5.505558032999999796e+01
-5.504745310999999930e+01
-5.504303554999999903e+01
-5.504244846000000280e+01
-5.504554042000000180e+01
-5.505186223999999839e+01
-5.506063858000000266e+01
-5.507073218000000026e+01
-5.508064276000000348e+01
-5.540412590999999765e+01
-5.540291652999999883e+01
-5.539815124999999796e+01
-5.539009502999999768e+01
-5.537920334999999739e+01
-5.536605219999999861e+01
-5.535131908999999695e+01
-5.533571862000000152e+01
-5.531997574999999756e+01
-5.530477516999999921e+01
-5.529072109999999896e+01
-5.527833597000000054e+01
-5.526801766999999899e+01
-5.526004171999999670e+01
-5.525452357999999720e+01
-5.525142317000000247e+01
-5.525050344000000280e+01
-5.525133469000000019e+01
-5.525327834000000138e+01
-5.525548169000000343e+01
-5.445548965999999780e+01
-5.445558583999999769e+01
-5.445277732000000270e+01
-5.444721450000000118e+01
-5.443917883999999674e+01
-5.442905995000000274e+01
-5.441729753999999986e+01
-5.440440885000000293e+01
-5.439088971000000328e+01
-5.437723915000000119e+01
-5.436390412000000083e+01
-5.435125722000000081e+01
-5.433960084000000279e+01
-5.432913917999999853e+01
-5.431997696999999903e+01
-5.431211954999999847e+01
-5.430546632000000074e+01
-5.429980478000000232e+01
-5.429482455000000130e+01
-5.429012723000000307e+01
-5.509381899000000260e+01
-5.509346028000000217e+01
-5.508999527000000285e+01
-5.508358679999999907e+01
-5.507452566999999988e+01
-5.506321346000000005e+01
-5.505012545999999674e+01
-5.503579050999999822e+01
-5.502074498000000347e+01
-5.500552634999999668e+01
-5.499063251999999835e+01
-5.497649539999999746e+01
-5.496351549999999975e+01
-5.495199405999999698e+01
-5.494215066000000292e+01
-5.493412648999999703e+01
-5.492794355000000195e+01
-5.492352526999999895e+01
-5.492067105000000282e+01
-5.491903062000000091e+01
-5.678257497999999970e+01
-5.678173161000000135e+01
-5.677775679999999880e+01
-5.677083420999999674e+01
-5.676128082000000319e+01
-5.674954301999999728e+01
-5.673614323999999698e+01
-5.672167309999999674e+01
-5.670674197000000305e+01
-5.669193029000000195e+01
-5.667782128999999713e+01
-5.666493164999999976e+01
-5.665371402000000245e+01
-5.664452491000000123e+01
-5.663763991999999803e+01
-5.663321356000000151e+01
-5.663127730000000071e+01
-5.663172055999999799e+01
-5.663424392999999668e+01
-5.663838833999999878e+01
-5.642680674999999724e+01
-5.642401843999999755e+01
-5.641851270000000085e+01
-5.641049740999999784e+01
-5.640026024000000149e+01
-5.638817664999999835e+01
-5.637466539999999782e+01
-5.636017111999999685e+01
-5.634514979000000068e+01
-5.633002744000000206e+01
-5.631521828999999713e+01
-5.630107928000000328e+01
-5.628791856000000138e+01
-5.627597533000000141e+01
-5.626543506000000150e+01
-5.625638706000000155e+01
-5.624884974999999798e+01
-5.624274205999999765e+01
-5.623787362000000201e+01
-5.623395349999999837e+01
-5.619004629999999878e+01
-5.618839232999999922e+01
-5.618318407000000292e+01
-5.617473054999999960e+01
-5.616347911999999809e+01
-5.615001252999999792e+01
-5.613500666000000194e+01
-5.611915047000000101e+01
-5.610315769000000330e+01
-5.608770882999999685e+01
-5.607341353999999711e+01
-5.606080977999999959e+01
-5.605032555999999744e+01
-5.604228229999999655e+01
-5.603685023999999970e+01
-5.603406798000000322e+01
-5.603378988000000049e+01
-5.603568812999999693e+01
-5.603920875000000024e+01
-5.604356774000000030e+01
-5.807204911000000180e+01
-5.807065008000000006e+01
-5.806649843999999661e+01
-5.805973754000000042e+01
-5.805060806000000184e+01
-5.803942972000000111e+01
-5.802658071999999834e+01
-5.801247601000000031e+01
-5.799754852000000227e+01
-5.798222924000000233e+01
-5.796693368999999763e+01
-5.795204780000000255e+01
-5.793792430999999965e+01