-6.700016923913366864e-05 -5.899980164972972737e-05 -5.700000637912239215e-05 7.300008204265221194e-05 2.799978961996886479e-05 -2.199999552280704698e-05 -5.600006607063501231e-05 -2.199984175646925636e-05 6.299999652995882384e-05 -7.100013597589226655e-05 -4.599979869662523308e-05 6.999999436624806536e-05 7.100006325561732860e-05 2.199979276656248331e-05 1.700000399784193367e-05 -6.700005604323927902e-05 -1.999980164989410329e-05 -5.700000372076907088e-05 5.000013298509159621e-05 4.599985385442242669e-05 1.500000489483027919e-05 -8.400006019522550849e-05 -1.999976035130475842e-05 6.099999568105610778e-05 6.900011840234353613e-05 4.099979857140006556e-05 1.700000522256367710e-05 -7.300004747658524358e-05 -1.699978450780496175e-05 -5.300000372740076729e-05 6.700006756557026061e-05 2.299980710290573671e-05 -2.299999607474197287e-05 -6.400019675162253263e-05 -6.699981867293455188e-05 6.499999318113419623e-05 8.600012689852683256e-05 4.399974882061044178e-05 2.300000602522683983e-05 7.500016069052764999e-05 5.499978436023983722e-05 -2.999999361203510616e-05 5.900014026782244691e-05 4.799983059512225486e-05 -2.699999465216318463e-05 -6.900016630147947413e-05 -5.799979577665348066e-05 -5.800000638133294883e-05
5.770877183248093040e-02 -7.825016953144056653e-02 2.983699669684373307e-02 2.255879937312932348e-02 -6.705307711515308411e-02 1.707509962232496847e-01 2.492926378057264136e-01 2.217272653013596939e-01 1.634020238853953477e-01 3.739617600624831756e-02 6.022089381776050965e-02 -3.459899457931847611e-02 1.128315443122317324e-01 -1.577823230951822808e-01 -6.446900678468989176e-02 -1.424767475700630115e-01 8.610941837909424912e-02 -7.109199914386034325e-02 -4.992655796833033593e-02 1.515811489278026114e-01 -5.893799142456645351e-02 -2.815938887420637027e-01 3.936481151178641835e-02 8.513499277479139038e-02 -4.734019110976602634e-02 -6.844684796275644911e-02 -2.147000063312857199e-01 1.132810481997708896e-01 1.528967860965859717e-02 -1.086099949718005164e-01 -1.423679285901153363e-02 7.116504245998447886e-02 -1.669499565014029296e-02 1.442703400392413363e-02 -3.306130542835711839e-01 1.820389779721309220e-01 2.298732613191683052e-02 1.105639434015258799e-01 -1.484799916547986098e-01 -9.435887842083566512e-02 4.323826628361607943e-02 1.113409996270424140e-01 7.980282224936724456e-02 -6.035423661343530116e-02 7.318899869410265546e-02 -8.035510323856875914e-02 -3.675876008456311489e-02 -9.812100533302990646e-02
1.135085584885151405e-01 -1.514353332846293254e-01 5.618999367176111953e-02 4.418860567903525743e-02 -1.318201509571378660e-01 3.330399925696313490e-01 4.856612524970576050e-01 4.354285684641471810e-01 3.216690467689619082e-01 7.269134532164571449e-02 1.181497936591629216e-01 -6.810598938879366959e-02 2.222301101651064370e-01 -3.081516361784042979e-01 -1.296400131848842452e-01 -2.781625059068374983e-01 1.685538167973803791e-01 -1.385129982985846275e-01 -9.690013732582189454e-02 2.958252891029531928e-01 -1.152099832453377382e-01 -5.494227889974714341e-01 7.473758321329510013e-02 1.681859857618218657e-01 -9.218836935381946596e-02 -1.323907035537353893e-01 -4.236010122679485512e-01 2.207300941237186898e-01 2.984037389282643074e-02 -2.134989901991824479e-01 -2.773059938142869232e-02 1.376570825693340661e-01 -3.054199159266210439e-02 2.935610629117765477e-02 -6.480851097489225277e-01 3.600389568576543020e-01 4.279364128053726041e-02 2.173838958101020624e-01 -2.936489836767281481e-01 -1.827257569158131922e-01 8.642851530200471033e-02 2.208289994616519092e-01 1.536716520222957683e-01 -1.181404558680467232e-01 1.443879973544495710e-01 -1.578122078897763181e-01 -7.394752889924754991e-02 -1.915650105933987268e-01
1.643343743724182682e-01 -2.146254821791704348e-01 7.635399115294796979e-02 6.357642453974025887e-02 -1.924552172034718900e-01 4.793619891187735349e-01 6.954638206999376182e-01 6.329679495492239738e-01 4.679720676161088777e-01 1.033705003877152528e-01 1.712037067048897965e-01 -9.877498469298498507e-02 3.242187200353380816e-01 -4.433709276671536914e-01 -1.960920188131442254e-01 -4.015492859553263516e-01 2.436021790436025403e-01 -1.989689975246801690e-01 -1.379267578623461221e-01 4.259464116538646539e-01 -1.661509758195182374e-01 -7.891697105897329534e-01 1.026922737832223348e-01 2.457319792313337470e-01 -1.304725259171400364e-01 -1.886555793727719976e-01 -6.152450174502227531e-01 3.164541368567237445e-01 4.335410285642633810e-02 -3.132399859098138339e-01 -3.960643245702019644e-02 1.950691175973555402e-01 -3.873798809717098751e-02 4.696325855597113796e-02 -9.381141723568728885e-01 5.287919377080024796e-01 5.751393505452133403e-02 3.169178625402146454e-01 -4.323569763742523553e-01 -2.589196357017541361e-01 1.294757292292409157e-01 3.267889997148422654e-01 2.156314964761732456e-01 -1.709026403656233040e-01 2.127749959382081169e-01 -2.302673171761621951e-01 -1.126553126704478158e-01 -2.785770157813030057e-01
2.076102317938757214e-01 -2.636066085858674857e-01 8.809198933700171374e-02 7.926926330821434941e-02 -2.464962712356865981e-01 6.038309859873669527e-01 8.670943194858005132e-01 8.063674426826880071e-01 5.958540854746553483e-01 1.272476336566356059e-01 2.168096391451337646e-01 -1.243379807441938045e-01 4.146793932594586285e-01 -5.567771856141089382e-01 -2.637520233601994279e-01 -5.072630986328746650e-01 3.075234893490104149e-01 -2.499519968873692433e-01 -1.707214375363314551e-01 5.357765098398613590e-01 -2.101679694871350923e-01 -9.882166605572934026e-01 1.207648468177690143e-01 3.145539734593598702e-01 -1.593666531831858801e-01 -2.344854843634288366e-01 -7.787580215908136427e-01 3.955301749342521322e-01 5.534587967911410583e-02 -4.062169823099778254e-01 -4.888130121000773542e-02 2.402851445356701254e-01 -3.900498534147399388e-02 6.890852823847985753e-02 -1.187863246574315079e+00 6.831449214565925576e-01 6.583419592175281110e-02 4.052348471683002162e-01 -5.611209700615550355e-01 -3.181105186079239422e-01 1.710328942021381027e-01 4.269370004647499162e-01 2.612043615431726695e-01 -2.166037770705190879e-01 2.777859944266599657e-01 -2.953294308136044655e-01 -1.527631184566149158e-01 -3.574160208044998011e-01
2.413891404153484521e-01 -2.950687067464949909e-01 8.983198838103302608e-02 9.031012828237131029e-02 -2.918413098946304740e-01 7.008499832850163536e-01 9.900757291929402903e-01 9.487810786774939498e-01 6.993900995093067507e-01 1.422217385518406707e-01 2.527185969831559076e-01 -1.434039777696458351e-01 4.896661452519119884e-01 -6.430513986121997316e-01 -3.319450266023381557e-01 -5.904999520914330224e-01 3.575387336036135455e-01 -2.890179964070395124e-01 -1.933461929832846482e-01 6.196095778925192477e-01 -2.451559645689339872e-01 -1.136142645320294298e+00 1.267042722899735518e-01 3.714309686591464876e-01 -1.762277453170456309e-01 -2.677454268978316509e-01 -9.038570244511950902e-01 4.539702078751195469e-01 6.566871583024384840e-02 -4.908799795500192187e-01 -5.469721456836660473e-02 2.702471607927592889e-01 -2.985798350382308508e-02 9.631095027022490429e-02 -1.385360335294090861e+00 8.178889089588448069e-01 6.624641426619563844e-02 4.790658538235085251e-01 -6.763059650145222257e-01 -3.561634063249020654e-01 2.108359983656482861e-01 5.191220018388769120e-01 2.868152529508168902e-01 -2.532848555258836454e-01 3.382389928275437163e-01 -3.504865489250446609e-01 -1.942969536406769504e-01 -4.267330255763723268e-01
2.638901075454833656e-01 -3.064977714688137955e-01 8.123698839373590108e-02 9.575202273233845984e-02 -3.274063301917465862e-01 7.668989810522887085e-01 1.058026037107987261e+00 1.055775876353933773e+00 7.742261091933351214e-01 1.470108120311511835e-01 2.778895838997648693e-01 -1.553839758854080322e-01 5.472339876123004654e-01 -6.981895610584897272e-01 -4.000500283350744146e-01 -6.492188531091761527e-01 3.913349057580155499e-01 -3.143259961695356597e-01 -2.045220330589741509e-01 6.744146119864560252e-01 -2.694549612265128014e-01 -1.226018669387852089e+00 1.189255302655877755e-01 4.137679649664643411e-01 -1.790567989238958935e-01 -2.871744132916760894e-01 -9.830060258750752400e-01 4.893032346302251812e-01 7.397061842862580339e-02 -5.664489777408776572e-01 -5.666317630601860195e-02 2.836601652042525235e-01 -1.086398265873120619e-02 1.308675468713716150e-01 -1.522994443190729630e+00 9.293419007932590681e-01 5.843458411626691051e-02 5.363808832688409245e-01 -7.756499613826437489e-01 -3.703683016655945348e-01 2.478940339770097090e-01 6.015410038650301772e-01 2.897571726732856012e-01 -2.802738678288219654e-01 3.934599910914142185e-01 -3.949256713620793446e-01 -2.371938206490646350e-01 -4.855490300640196155e-01
2.736581387477056704e-01 -2.959847984859254599e-01 6.166398945403658849e-02 9.486794983404081560e-02 -3.521323298189388273e-01 7.990729793357875810e-01 1.065368231333982951e+00 1.123208852146809544e+00 8.167271140481051628e-01 1.404218508516764385e-01 2.912156032997283983e-01 -1.594289752089144974e-01 5.851889301512388508e-01 -7.188026666350300076e-01 -4.673330284046037231e-01 -6.812488072177326215e-01 4.070229994163081511e-01 -3.244869962272270980e-01 -2.030909665354168614e-01 6.971856086691629040e-01 -2.817229596240229950e-01 -1.252020735977257715e+00 9.629360398990464975e-02 4.393759625088758947e-01 -1.662378113982160843e-01 -2.917964486756029485e-01 -1.009746025739065356e+00 4.994212548582450673e-01 8.014159354990561812e-02 -6.322969769642248217e-01 -5.435319005315304014e-02 2.792801564958772853e-01 1.853201712399653311e-02 1.736253385814740535e-01 -1.593728573080447575e+00 1.014236897476338273e+00 4.195769938055695508e-02 5.751079366341277366e-01 -8.569499593226704848e-01 -3.585752066152839701e-01 2.815049948971606320e-01 6.727090065710105149e-01 2.681191232200382246e-01 -2.967128083956582230e-01 4.429049892095135443e-01 -4.275087976334616124e-01 -2.812787228170859355e-01 -5.333900342154704877e-01
2.699152360882671742e-01 -2.628107855796634196e-01 3.169899158356896673e-02 8.727691162263791214e-02 -3.653323075906227402e-01 7.962019781689346765e-01 1.010457305830137154e+00 1.148974010969726844e+00 8.248531138721837408e-01 1.218808542665369560e-01 2.924396568472187874e-01 -1.555119757778803680e-01 6.025889774563855106e-01 -7.032937126998670685e-01 -5.324420267352157898e-01 -6.861628179571587216e-01 4.033930132847524108e-01 -3.187029966475660170e-01 -1.886939963892759475e-01 6.869085668336336603e-01 -2.810059598179497908e-01 -1.212196845267161649e+00 5.872848790106866695e-02 4.467329613496127672e-01 -1.373887824634644483e-01 -2.814795343648174297e-01 -9.810480240207266611e-01 4.839232678285840250e-01 8.393864230896122547e-02 -6.877049772507340952e-01 -4.761925508001905311e-02 2.573521342741949547e-01 5.780001586626767884e-02 2.250733342964919281e-01 -1.594526726219650747e+00 1.070183899232231006e+00 1.703575609598487542e-02 5.939030131603902918e-01 -9.184389589184722702e-01 -3.202041242167256718e-01 3.106008795532395061e-01 7.310040099044283757e-01 2.215011046884095280e-01 -3.025766760174225523e-01 4.858699871694709960e-01 -4.476919252041726693e-01 -3.256696617720097886e-01 -5.695470379514637749e-01
2.519974001220099402e-01 -2.067737308837335197e-01 -7.764005227262056434e-03 7.279190906713509102e-02 -3.666842628973768226e-01 7.573079775670986669e-01 8.933302566285845625e-01 1.131688352804866904e+00 7.972901085726034065e-01 9.116382263361760829e-02 2.816807452165840386e-01 -1.439879775920759886e-01 5.988431328955338140e-01 -6.504786976707748192e-01 -5.934240232670012771e-01 -6.640588880535178706e-01 3.795149475959215812e-01 -2.962129974973923829e-01 -1.610921239107988290e-01 6.431534857044554077e-01 -2.661049618291935204e-01 -1.106070996155926300e+00 6.594180704960748464e-03 4.345559615302351797e-01 -9.247071240952535465e-02 -2.563066705673976986e-01 -8.955200207243443344e-01 4.428842730170874931e-01 8.519276442294529406e-02 -7.317169786092859729e-01 -3.650036953533387918e-02 2.185000987301725095e-01 1.057990136092436251e-01 2.852915385979757912e-01 -1.523833902708374488e+00 1.095243906169746095e+00 -1.588824910712858043e-02 5.916281114326752411e-01 -9.582219602320307672e-01 -2.552670576119702717e-01 3.340766881063179650e-01 7.745740137895414934e-01 1.500851168365682220e-01 -2.979614711510635283e-01 5.213089849711469714e-01 -4.551650512864333642e-01 -3.693956384726994613e-01 -5.931530411949054171e-01
2.196956283253168329e-01 -1.287226339066452063e-01 -5.503600104368082391e-02 5.151394166220177318e-02 -3.563551960722919354e-01 6.829769775224502348e-01 7.174860845948749510e-01 1.071653867475257815e+00 7.343500982930675214e-01 4.875675837826864978e-02 2.597638670569361041e-01 -1.257329805781662313e-01 5.744283958802439694e-01 -5.605326230881817473e-01 -6.479910179951045013e-01 -6.165120185030162903e-01 3.350478069086477162e-01 -2.568329988553688104e-01 -1.206183453650158943e-01 5.672153662021998111e-01 -2.363459655812005233e-01 -9.363091846523394768e-01 -5.874030982611556928e-02 4.023409630502501888e-01 -3.245060316250752974e-02 -2.169668543339300926e-01 -7.552560159309084087e-01 3.776862696762459670e-01 8.365995580452287306e-02 -7.632159810078843476e-01 -2.135252810422630029e-02 1.645330510216793385e-01 1.607010104637045800e-01 3.536479459305927331e-01 -1.383576100644843931e+00 1.088427918135363104e+00 -5.576031778627253688e-02 5.677632282984104162e-01 -9.749289632617039736e-01 -1.651990110099540998e-01 3.504604248443963788e-01 8.016150180755211574e-01 5.537015771974349021e-02 -2.835501980744982164e-01 5.481529826207310885e-01 -4.502871716303089578e-01 -4.109806519432284144e-01 -6.032390438578187908e-01
1.733599160721131793e-01 -3.022749579832867753e-02 -1.081499959603877403e-01 2.388000822179578084e-02 -3.347371084772604033e-01 5.745809780236461606e-01 4.884387942325009724e-01 9.704425388621532589e-01 6.377140833347481053e-01 -4.540334765924332674e-03 2.279610201270075021e-01 -1.019309846212985149e-01 5.304507623405291250e-01 -4.348284923266785285e-01 -6.937300109741966203e-01 -5.457472087023717000e-01 2.701965976969190053e-01 -2.007980007858124194e-01 -6.806265445675682701e-02 4.612682105911717345e-01 -1.913089709535820970e-01 -7.078054053769659015e-01 -1.354179695077789292e-01 3.503849658640325049e-01 4.093054236923496236e-02 -1.645170803021793193e-01 -5.647900097737268421e-01 2.906612572031940789e-01 7.914520961372620289e-02 -7.811539843777652870e-01 -2.631723777735951470e-03 9.783799262872833191e-02 2.202100065763102077e-01 4.289075437497436027e-01 -1.178073316456091701e+00 1.049905934791163231e+00 -1.014494501704339552e-01 5.222393604192941963e-01 -9.677439679723986998e-01 -5.225098810237472496e-02 3.584600964137926726e-01 8.104710225950956248e-01 -6.024377530131828917e-02 -2.602658636766680411e-01 5.652729801397571308e-01 -4.336272813447544783e-01 -4.487287005931784312e-01 -5.989090458446212351e-01
1.137622555666210344e-01 8.606168099856259524e-02 -1.641429901308503747e-01 -9.343893934300129267e-03 -3.027250024954036833e-01 4.344649790366334474e-01 2.146873936373712710e-01 8.308783421026666449e-01 5.102410641891891308e-01 -6.712945108187003129e-02 1.882191999165341856e-01 -7.445798953253124353e-02 4.688452247021423491e-01 -2.759383112138849015e-01 -7.275400023115062842e-01 -4.552394563949838657e-01 1.857323300831756896e-01 -1.286420033584434464e-01 -4.777040569209526494e-03 3.289720227834834199e-01 -1.308179777444344050e-01 -4.280856507214126916e-01 -2.208077765503928536e-01 2.794839698861034116e-01 1.250497200178762591e-01 -1.004823403584017422e-01 -3.314660024490430623e-01 1.853352347167386838e-01 7.136551550067803118e-02 -7.838319886141504877e-01 1.884405362318779947e-02 2.188192615065799596e-02 2.810230021545986889e-01 5.089933113861447866e-01 -9.144385441603727349e-01 9.803629555792205963e-01 -1.511576448742895928e-01 4.555425025277625717e-01 -9.359489742677222779e-01 7.994700646429230007e-02 3.564497134916724264e-01 7.990700271097038732e-01 -1.930176861770108165e-01 -2.294894786976647838e-01 5.710229775656553430e-01 -4.062973739077193613e-01 -4.803757812901801039e-01 -5.787670470401193867e-01
4.206563624926568101e-02 2.165498928658927402e-01 -2.194559837591922025e-01 -4.706176915228631880e-02 -2.617758815350652579e-01 2.659629805006635817e-01 -9.282510543673409831e-02 6.570622451462311275e-01 3.561700415209751447e-01 -1.366725830775278872e-01 1.430923997929229585e-01 -4.556399505550976642e-02 3.923987720227836706e-01 -8.759208806387529245e-02 -7.461209921632159237e-01 -3.495677575241928903e-01 8.304001742893285520e-02 -4.140900663997632708e-02 6.734751092027574382e-02 1.753618082846359338e-01 -5.512198567709544750e-02 -1.070689116779808964e-01 -3.117867022743597838e-01 1.912499749803183990e-01 2.165989245996583490e-01 -2.676662423775878416e-02 -6.501799420303690236e-02 6.618820127279459453e-02 6.001886033155960642e-02 -7.693309935799887977e-01 4.191381674338977292e-02 -5.902814476394110943e-02 3.390489974512957416e-01 5.911722205716076761e-01 -6.023897759455330014e-01 8.815639797409627887e-01 -2.025128984229216111e-01 3.688726477236371482e-01 -8.793159819824161172e-01 2.265379677683185822e-01 3.427072903230625744e-01 7.652440313310677755e-01 -3.380945800342468610e-01 -1.930110571020104693e-01 5.634559749473161405e-01 -3.699854420866997562e-01 -5.034118892369332521e-01 -5.413160473326195099e-01
-3.967595575236745192e-02 3.565111335410242610e-01 -2.696729770952775440e-01 -8.772362283838522345e-02 -2.136967504078478852e-01 7.366398234710552773e-02 -4.207236869790955125e-01 4.545782087916790393e-01 1.810870161813502577e-01 -2.101977216589281661e-01 9.567961132234037436e-02 -1.807000087442225608e-02 3.047103878762436602e-01 1.245911664502381277e-01 -7.461399807856955446e-01 -2.342571053607474807e-01 -3.558132412033281067e-02 5.929598933188873905e-02 1.456050186529241619e-01 6.849575008025619340e-03 3.490800559028010147e-02 2.425958218092457430e-01 -4.048607101317874268e-01 8.810798093976168754e-02 3.113551494030024624e-01 5.417308112995761898e-02 2.226250146482219028e-01 -6.094384410347874342e-02 4.479522702223123765e-02 -7.355179990910607479e-01 6.520658103730042621e-02 -1.396272158007317576e-01 3.893719927770381006e-01 6.717672352210047881e-01 -2.543250013337841064e-01 7.563640063019245741e-01 -2.527612050184925852e-01 2.642217880448246015e-01 -7.983039908837955556e-01 3.812858915055891695e-01 3.157248451486633911e-01 7.069250349369730069e-01 -4.891304631545070891e-01 -1.530216171521186219e-01 5.403599723586192116e-01 -3.267984776512014577e-01 -5.149830184208951112e-01 -4.850460466017231798e-01
-1.289305375036306767e-01 5.001243953453887725e-01 -3.099589704467899387e-01 -1.294434624072602624e-01 -1.609686150016629846e-01 -1.363600155267906677e-01 -7.534153311299628397e-01 2.303521873109580509e-01 -8.113010808922491851e-03 -2.838728565495723943e-01 4.948682357722233860e-02 5.167993384546000143e-03 2.100830514898883727e-01 3.534914396317173635e-01 -7.245529685128566655e-01 -1.158084903848401320e-01 -1.668826755220031433e-01 1.709239845498640997e-01 2.266245055084561422e-01 -1.687036671392262710e-01 1.374679964749063454e-01 6.062105607179195665e-01 -4.962067576919243495e-01 -2.657401249215456812e-02 4.046453863820897445e-01 1.393997902352367424e-01 5.178590237401112795e-01 -1.894669020762031753e-01 2.549059629441914610e-02 -6.803470049292503763e-01 8.697536391239271691e-02 -2.139832815209279371e-01 4.265899884746970350e-01 7.465003122279272318e-01 1.149537918122558594e-01 6.088620341026295124e-01 -2.984485558142802586e-01 1.446219135562624158e-01 -6.942340006436557021e-01 5.366917737772106678e-01 2.741383998503050257e-01 6.224070375705802460e-01 -6.386773427740448650e-01 -1.120411803144432117e-01 4.995189698898648278e-01 -2.795034725321373648e-01 -5.122951608892245545e-01 -4.088090447543449857e-01
-2.223761289587448120e-01 6.405816682607199386e-01 -3.347929641608921036e-01 -1.700222964074405985e-01 -1.064504821840519533e-01 -3.569930132385271682e-01 -1.073646013859221426e+00 -7.242869902094755535e-03 -2.036970382720032224e-01 -3.533189765557506190e-01 8.332024064920421844e-03 2.096298813572369107e-02 1.134667370342786752e-01 5.902417169326609203e-01 -6.787079557749254866e-01 -1.467900320516849454e-03 -3.066730155284622117e-01 2.902999790446574302e-01 3.062729976800636633e-01 -3.423039059899339875e-01 2.500439874444136956e-01 9.667573166598428802e-01 -5.817757958325764367e-01 -1.488080056382465877e-01 4.912886262178245422e-01 2.255305190841210838e-01 8.064770326597338057e-01 -3.118969731546003543e-01 1.952946294363376665e-03 -6.018850108415807476e-01 1.052981843986708216e-01 -2.756123359383493843e-01 4.447219849186117568e-01 8.106344026528294888e-01 4.886466168962925183e-01 4.441240618312615185e-01 -3.357189392336650813e-01 1.403701320415045965e-02 -5.691320108561186419e-01 6.841696119662994402e-01 2.170299794405910476e-01 5.103390388672023326e-01 -7.782392271355491609e-01 -7.293777109019282390e-02 4.386139676445082181e-01 -2.312584187921005174e-01 -4.926043075281810735e-01 -3.118390417145655569e-01
-3.160367520555785181e-01 7.703899403793392775e-01 -3.387829586084262767e-01 -2.070121343226539457e-01 -5.330735963640086117e-02 -5.797820109177024284e-01 -1.363368707783051192e+00 -2.486710157976261826e-01 -3.973110649228755453e-01 -4.138700710317402831e-01 -2.415080056721123289e-02 2.652398379099612374e-02 1.994841473933823411e-02 8.246059834711318981e-01 -6.068859430906227148e-01 1.014256800197356062e-01 -4.497703225539386174e-01 4.132479729112534805e-01 3.798975232061543306e-01 -5.043341277959967339e-01 3.690709789906009841e-01 1.305891101457607784e+00 -6.574377716270874972e-01 -2.739149988625022569e-01 5.660328581469357134e-01 3.086852838855259629e-01 1.074319040957816718e+00 -4.205020569560772858e-01 -2.567174549943071135e-02 -4.989630165460364752e-01 1.181950614550184991e-01 -3.180513729181720373e-01 4.380759824796495172e-01 8.591244543121810961e-01 8.488464881560099373e-01 2.680960880897101384e-01 -3.605413411642240384e-01 -1.227069245076045645e-01 -4.259870210503925447e-01 8.146164056508078399e-01 1.442506103607127388e-01 3.704260384963783959e-01 -8.987231243306642581e-01 -3.852041575246972771e-02 3.558999657510328318e-01 -1.854123101084468039e-01 -4.537354485984896879e-01 -1.944140374519709724e-01
-4.057564295959839029e-01 8.817581992729670581e-01 -3.165639541742135687e-01 -2.380359867721612566e-01 -5.087254880302139598e-03 -7.955950087225197587e-01 -1.604161382716638107e+00 -4.834323044083472243e-01 -5.806870893976188164e-01 -4.605611299062796760e-01 -4.452266455608008128e-02 1.930098075947767056e-02 -6.527494717262788404e-02 1.045648224092617484e+00 -5.080529310225120332e-01 1.853522678786219957e-01 -5.902925744418543452e-01 5.349249662859821841e-01 4.425901115889821491e-01 -6.446803180278819490e-01 4.903779716301713276e-01 1.604945926783970966e+00 -7.191126312262458020e-01 -3.970819925436123721e-01 6.239980707981227503e-01 3.847890996871984881e-01 1.308420048184884665e+00 -5.078711524200218985e-01 -5.701150063403132712e-02 -3.710390217564920601e-01 1.235880130443705871e-01 -3.351773860587839438e-01 4.012189815020537620e-01 8.871474128982529406e-01 1.176919419157416602e+00 8.712511143812226577e-02 -3.685717451536411060e-01 -2.599829119544633804e-01 -2.682150306900735193e-01 9.187411558581367599e-01 5.616031954346854121e-02 2.031660361557271754e-01 -9.911480426663982213e-01 -1.166714027854230673e-02 2.500609643292778239e-01 -1.455981422964592320e-01 -3.942615734724332910e-01 -5.775303199712613494e-02
-4.870971840797771457e-01 9.669874317626521165e-01 -2.637659512268815121e-01 -2.607748640367653081e-01 3.478682468382521958e-02 -9.946080068047026268e-01 -1.778821007344502103e+00 -7.006427861976545213e-01 -7.460151103490308966e-01 -4.888431453913076319e-01 -5.012058099101435182e-02 -2.378020617249400684e-03 -1.375243816598497315e-01 1.242010425231897308e+00 -3.824339201801494337e-01 2.437448824797494029e-01 -7.216847517483057084e-01 6.497049593845802828e-01 4.894567909510991743e-01 -7.537124621480898456e-01 6.090809658473296251e-01 1.845710804125664017e+00 -7.627833221075926984e-01 -5.134059870485523369e-01 6.608532523036459994e-01 4.496179798195164556e-01 1.497633053900624178e+00 -5.672912570099373220e-01 -9.120333853223357157e-02 -2.190140261779142394e-01 1.197100540965835985e-01 -3.218963699512080723e-01 3.300379822708713329e-01 8.902342255713949770e-01 1.454739422426710282e+00 -9.226086951627247845e-02 -3.559731336023138626e-01 -3.917769599937866443e-01 -9.991503923021836930e-02 9.879768665865094057e-01 -4.583786828906083466e-02 1.066103163943636287e-02 -1.047117989070128541e+00 5.234030969780390299e-03 1.209909635118980309e-01 -1.150739144001438202e-01 -3.138876725005604329e-01 9.530897455543863028e-02
-4.665799999999999809e-02 5.416149999999999576e-01 -1.022539999999999977e-01 2.513029999999999986e-01 -6.368030000000000079e-01 2.702320000000000277e-01 -6.090870000000000450e-01 -4.323759999999999826e-01 3.523519999999999985e-01 -5.604860000000000397e-01 -7.761630000000000473e-01 2.423089999999999966e-01 1.713610000000000133e-01 2.692680000000000073e-01 -1.501510000000000067e-01 2.786290000000000155e-01 6.320090000000000430e-01 -2.666370000000000129e-01 4.766750000000000154e-01 2.120249999999999913e-01 -1.296130000000000060e-01 1.573090000000000044e-01 -8.673579999999999623e-01 3.653800000000000103e-02 -9.535200000000000620e-02 -7.519999999999999558e-04 5.187499999999999750e-02 6.112950000000000328e-01 4.527909999999999990e-01 -4.195169999999999733e-01 2.807220000000000271e-01 -1.869879999999999876e-01 8.111200000000000354e-02 -4.346140000000000003e-01 2.176420000000000021e-01 4.818399999999999767e-02 -3.701030000000000153e-01 3.990170000000000106e-01 -2.765210000000000168e-01 -2.350220000000000087e-01 -1.776480000000000004e-01 3.623129999999999962e-01 6.066660000000000386e-01 3.017070000000000030e-01 -2.852709999999999968e-01 -4.825389999999999957e-01 5.134699999999999681e-02 1.848380000000000023e-01
-1.210470000000000018e-01 5.831279999999999797e-01 7.266999999999999849e-02 2.191980000000000040e-01 -7.209119999999999973e-01 4.216610000000000080e-01 -6.765250000000000430e-01 -2.497479999999999978e-01 4.254769999999999941e-01 -5.531390000000000473e-01 -7.962470000000000381e-01 1.144180000000000058e-01 2.746259999999999812e-01 2.035329999999999917e-01 -1.289849999999999886e-01 2.545229999999999992e-01 6.774310000000000054e-01 -1.174660000000000010e-01 3.941379999999999884e-01 6.618000000000000271e-02 1.179879999999999957e-01 1.190930000000000044e-01 -6.855830000000000535e-01 -7.919299999999999951e-02 -8.271900000000000086e-02 1.796800000000000133e-02 -1.232420000000000043e-01 6.495149999999999535e-01 4.152580000000000160e-01 -2.619060000000000277e-01 4.781059999999999754e-01 -4.140650000000000164e-01 -8.825900000000000412e-02 -5.313149999999999817e-01 2.711370000000000169e-01 1.033379999999999993e-01 -4.638220000000000121e-01 4.585600000000000231e-01 -3.029839999999999756e-01 -2.036060000000000092e-01 -9.252900000000000014e-02 1.280699999999999894e-01 8.184730000000000061e-01 3.714069999999999871e-01 -3.566119999999999846e-01 -5.753500000000000281e-01 -1.062599999999999933e-01 7.484999999999999987e-02
-1.831139999999999990e-01 6.100010000000000154e-01 2.456180000000000030e-01 1.722299999999999942e-01 -7.877939999999999943e-01 5.546229999999999771e-01 -7.216280000000000472e-01 -7.186199999999999533e-02 4.795449999999999990e-01 -5.258040000000000491e-01 -7.954080000000000039e-01 -2.054800000000000029e-02 3.737260000000000026e-01 1.453820000000000112e-01 -1.001329999999999998e-01 2.280169999999999975e-01 7.066109999999999891e-01 3.852200000000000069e-02 2.983390000000000208e-01 -6.594600000000000461e-02 3.689230000000000009e-01 6.468500000000000638e-02 -4.846659999999999857e-01 -1.952840000000000131e-01 -7.350700000000000289e-02 1.682099999999999915e-02 -2.937310000000000199e-01 6.593379999999999797e-01 3.747219999999999995e-01 -8.620300000000000185e-02 6.482470000000000176e-01 -6.367040000000000477e-01 -2.533039999999999736e-01 -5.979400000000000270e-01 3.249600000000000266e-01 1.576049999999999951e-01 -5.255560000000000231e-01 5.096239999999999659e-01 -3.177470000000000017e-01 -1.709249999999999936e-01 -1.658799999999999858e-02 -1.167360000000000064e-01 9.947139999999999871e-01 4.434299999999999908e-01 -4.132850000000000135e-01 -6.408700000000000507e-01 -2.733410000000000006e-01 -4.787500000000000089e-02
-2.313340000000000118e-01 6.194319999999999826e-01 4.042689999999999895e-01 1.137139999999999956e-01 -8.311250000000000027e-01 6.642139999999999711e-01 -7.414159999999999640e-01 8.919299999999999451e-02 5.136530000000000262e-01 -4.801409999999999845e-01 -7.704879999999999507e-01 -1.548930000000000029e-01 4.622370000000000090e-01 9.677600000000000091e-02 -6.833000000000000185e-02 2.033210000000000017e-01 7.171619999999999662e-01 1.918739999999999890e-01 1.910129999999999884e-01 -1.749670000000000114e-01 6.113750000000000018e-01 -6.411000000000000032e-03 -2.732069999999999776e-01 -3.034359999999999835e-01 -6.636599999999999444e-02 -5.723999999999999921e-03 -4.487639999999999962e-01 6.370700000000000252e-01 3.325770000000000115e-01 1.009800000000000003e-01 7.829690000000000261e-01 -8.420299999999999452e-01 -4.049789999999999779e-01 -6.295020000000000060e-01 3.758960000000000079e-01 2.053719999999999990e-01 -5.449429999999999552e-01 5.480720000000000036e-01 -3.200160000000000227e-01 -1.393749999999999989e-01 4.526100000000000262e-02 -3.610380000000000256e-01 1.121879999999999988e+00 5.122790000000000399e-01 -4.524110000000000076e-01 -6.728309999999999569e-01 -4.397530000000000050e-01 -1.775569999999999926e-01