1.881413903487925836e+02 -1.383757064584807120e-03 1.053170523722584073e-05 -1.383757064584806903e-03 1.881429076720907005e+02 2.036091442604253437e-05 1.053170523722583735e-05 2.036091442604253437e-05 1.916514341535141455e+02
1.881579092905336381e+02 -4.335033799329265219e-02 -1.103303218153575856e-03 -4.335033799329265219e-02 1.882202437017156456e+02 -8.434205592096873441e-04 -1.103303218153575856e-03 -8.434205592096873441e-04 1.916970464261943903e+02
1.880358524871304553e+02 -8.364474561134176145e-02 -4.485998959380610267e-03 -8.364474561134176145e-02 1.881623163280479787e+02 -2.967355605032440894e-03 -4.485998959380611134e-03 -2.967355605032441328e-03 1.916018126654786045e+02
1.881874096661944407e+02 -1.214443984610094479e-01 -9.471960355921064945e-03 -1.214443984610094479e-01 1.883800643432699076e+02 -7.254300965889494239e-03 -9.471960355921063210e-03 -7.254300965889493372e-03 1.917797105446936996e+02
1.882139680171848681e+02 -1.574248442385684787e-01 -1.578272779538015050e-02 -1.574248442385684510e-01 1.884731665532430611e+02 -1.281489971244630620e-02 -1.578272779538015050e-02 -1.281489971244630446e-02 1.918337155995986905e+02
1.882483714812605626e+02 -1.917679427134349468e-01 -2.306028245117951875e-02 -1.917679427134349468e-01 1.885709670075368081e+02 -1.878323666422019103e-02 -2.306028245117951528e-02 -1.878323666422019103e-02 1.918963357771073959e+02
1.882744929844038779e+02 -2.247834119791256025e-01 -3.059640526114081396e-02 -2.247834119791256302e-01 1.886554384499683863e+02 -2.503003048693605223e-02 -3.059640526114081049e-02 -2.503003048693605570e-02 1.919534777366779963e+02
1.882870780654622820e+02 -2.570622705418967868e-01 -3.788319393128317114e-02 -2.570622705418968423e-01 1.887187812427423523e+02 -3.080089129785150426e-02 -3.788319393128317114e-02 -3.080089129785150426e-02 1.919994075346283751e+02
1.882848828991781431e+02 -2.890662510561146092e-01 -4.454274113697290205e-02 -2.890662510561146092e-01 1.887579515394623968e+02 -3.566392764931145681e-02 -4.454274113697290205e-02 -3.566392764931145681e-02 1.920330667497988770e+02
1.882618013157349139e+02 -3.212535345904325990e-01 -5.020424274030287071e-02 -3.212535345904325434e-01 1.887649877418327549e+02 -3.909916459005686323e-02 -5.020424274030286377e-02 -3.909916459005685629e-02 1.920469526673913663e+02
1.882227986574731347e+02 -3.541320242199356150e-01 -5.463683434172621201e-02 -3.541320242199356150e-01 1.887438479220185741e+02 -4.088000112234398825e-02 -5.463683434172621894e-02 -4.088000112234399519e-02 1.920436999749692006e+02
1.881737345982265595e+02 -3.880299013792881113e-01 -5.781636436306803600e-02 -3.880299013792881113e-01 1.887004549788175041e+02 -4.113501048850692898e-02 -5.781636436306803600e-02 -4.113501048850692898e-02 1.920269080151005880e+02
1.881221516314675171e+02 -4.231240408129017805e-01 -5.994102108465882567e-02 -4.231240408129017805e-01 1.886431576548342548e+02 -4.013199373449133356e-02 -5.994102108465883261e-02 -4.013199373449134050e-02 1.920009553840816636e+02
1.880924353562185729e+02 -4.594648732036262784e-01 -6.146400867492325670e-02 -4.594648732036262784e-01 1.885977579872542833e+02 -3.823962082539371365e-02 -6.146400867492325670e-02 -3.823962082539370672e-02 1.919874985170699802e+02
1.880823098115799610e+02 -4.970701490516997167e-01 -6.317950020764867558e-02 -4.970701490516997167e-01 1.885647937110968826e+02 -3.616042509984755682e-02 -6.317950020764868946e-02 -3.616042509984755682e-02 1.919821176172772539e+02
1.880992585350912236e+02 -5.355917862824154385e-01 -6.607275290049981209e-02 -5.355917862824154385e-01 1.885553889027613650e+02 -3.459836008981221483e-02 -6.607275290049981209e-02 -3.459836008981221483e-02 1.919918764032387628e+02
1.881490097905410721e+02 -5.745680451031669467e-01 -7.137480462185948060e-02 -5.745680451031667246e-01 1.885795097677444687e+02 -3.410252243632384134e-02 -7.137480462185948060e-02 -3.410252243632384134e-02 1.920239891876573779e+02
1.882235323668051876e+02 -6.133183978382263923e-01 -8.040761738012096316e-02 -6.133183978382263923e-01 1.886334106274885869e+02 -3.497835867687965061e-02 -8.040761738012096316e-02 -3.497835867687965061e-02 1.920742975824988434e+02
1.883130532759718676e+02 -6.509897038893510679e-01 -9.437381401582553564e-02 -6.509897038893510679e-01 1.887108901230526783e+02 -3.736793545044458237e-02 -9.437381401582553564e-02 -3.736793545044458237e-02 1.921394423433173699e+02
1.884043337354463858e+02 -6.863573112222256523e-01 -1.141457038114945810e-01 -6.863573112222255412e-01 1.888017675135524769e+02 -4.109011135149658045e-02 -1.141457038114945671e-01 -4.109011135149658045e-02 1.922147564716990189e+02
1.999365941250227365e+02 3.941260193344288343e+00 -3.523525337193697649e+00 3.941260193344288343e+00 1.728745565637159132e+02 -3.032346942635341325e+00 -3.523525337193697649e+00 -3.032346942635341325e+00 1.774779404147176365e+02
1.999751611930223021e+02 3.922412220239456904e+00 -3.519368657127751376e+00 3.922412220239456904e+00 1.728568612290882527e+02 -2.986914314609776078e+00 -3.519368657127751376e+00 -2.986914314609776078e+00 1.774985722843815381e+02
2.000236703962729052e+02 3.887378473926902167e+00 -3.515470512795001223e+00 3.887378473926902167e+00 1.729162698679575385e+02 -2.945427229134713443e+00 -3.515470512795001223e+00 -2.945427229134713443e+00 1.775661212080724454e+02
1.999846178556188079e+02 3.838450586419484445e+00 -3.511939345572427040e+00 3.838450586419484445e+00 1.729556427056589314e+02 -2.911353655809057361e+00 -3.511939345572427040e+00 -2.911353655809057361e+00 1.775820570634047328e+02
1.999393863109412735e+02 3.776221753593926422e+00 -3.507941377720470655e+00 3.776221753593926422e+00 1.730567948112719989e+02 -2.886367613505254504e+00 -3.507941377720470655e+00 -2.886367613505254504e+00 1.776251161897686188e+02
1.998903542909857549e+02 3.704266950116482882e+00 -3.502349106180469906e+00 3.704266950116482882e+00 1.732145834781706242e+02 -2.872785151499856138e+00 -3.502349106180469906e+00 -2.872785151499856138e+00 1.776896847709795964e+02
1.997769662636443400e+02 3.622354930136906237e+00 -3.493214176940863780e+00 3.622354930136906237e+00 1.733697824788084176e+02 -2.871024235894862997e+00 -3.493214176940863780e+00 -2.871024235894862997e+00 1.777106276016781123e+02
1.996419560311499311e+02 3.534776668671442135e+00 -3.478623425575999573e+00 3.534776668671442135e+00 1.735541945809877973e+02 -2.881996923304606995e+00 -3.478623425575999573e+00 -2.881996923304606995e+00 1.777198860535458209e+02
1.994775538765651390e+02 3.442730766105381424e+00 -3.456387198056666499e+00 3.442730766105381424e+00 1.737559580216387189e+02 -2.905150952676787135e+00 -3.456387198056666499e+00 -2.905150952676787135e+00 1.777023752847054254e+02
1.992854934256120600e+02 3.347306663292220374e+00 -3.424455162387654017e+00 3.347306663292220374e+00 1.739716709014051901e+02 -2.939401192086794179e+00 -3.424455162387654017e+00 -2.939401192086794179e+00 1.776548420538476876e+02
1.990585787670500224e+02 3.249172962364198725e+00 -3.380998178256597431e+00 3.249172962364198725e+00 1.741922277353950221e+02 -2.983172009871758235e+00 -3.380998178256597431e+00 -2.983172009871758235e+00 1.775673873150102793e+02
1.988219223384301699e+02 3.149184985705307582e+00 -3.324581372344257435e+00 3.149184985705307582e+00 1.744366028919604048e+02 -3.034171055864005151e+00 -3.324581372344257435e+00 -3.034171055864005151e+00 1.774646624503535577e+02
1.985676064829233951e+02 3.046425649617514164e+00 -3.254511725254704224e+00 3.046425649617514164e+00 1.746979286566108840e+02 -3.089752647727157520e+00 -3.254511725254704224e+00 -3.089752647727157520e+00 1.773441747445166641e+02
1.982872646969415200e+02 2.939870865335433958e+00 -3.171015455754485401e+00 2.939870865335433958e+00 1.749644696615237649e+02 -3.146356892046064946e+00 -3.171015455754485401e+00 -3.146356892046064946e+00 1.772044756792387830e+02
1.980114185600980079e+02 2.828053442573179144e+00 -3.074697250197354403e+00 2.828053442573179144e+00 1.752689594031410252e+02 -3.199867325424388564e+00 -3.074697250197354403e+00 -3.199867325424388564e+00 1.770872792769164334e+02
1.977415517802394618e+02 2.707992320696030575e+00 -2.967121967923963322e+00 2.707992320696030575e+00 1.756124068889768921e+02 -3.247758915534577628e+00 -2.967121967923963322e+00 -3.247758915534577628e+00 1.770056243563604141e+02
1.974105362723962855e+02 2.576305708682817830e+00 -2.851706589541390890e+00 2.576305708682817830e+00 1.759285012942405899e+02 -3.285897963264746924e+00 -2.851706589541390890e+00 -3.285897963264746924e+00 1.769066461053706405e+02
1.971219866950402206e+02 2.432936872303200548e+00 -2.730473439007086167e+00 2.432936872303200548e+00 1.763155888936851454e+02 -3.311217947557261621e+00 -2.730473439007086167e+00 -3.311217947557261621e+00 1.769000972516178081e+02
1.967436763837376361e+02 2.274079591040675918e+00 -2.607951200580871376e+00 2.274079591040675918e+00 1.766363153975019600e+02 -3.323893380032029388e+00 -2.607951200580871376e+00 -3.323893380032029388e+00 1.768569641553080487e+02
1.963992005002075132e+02 2.099305844625840578e+00 -2.487186286985577421e+00 2.099305844625840578e+00 1.770112453540930062e+02 -3.324240966962215715e+00 -2.487186286985577421e+00 -3.324240966962215715e+00 1.769011816653876110e+02
1.818352917404778850e+02 3.603230483997422184e-01 2.679403614748274709e+00 3.603230483997422184e-01 1.724231295612554220e+02 1.872932891413745526e-01 2.679403614748274709e+00 1.872932891413745526e-01 1.667676964511487938e+02
1.818193896794907403e+02 3.795459046317694596e-01 2.679584377966169662e+00 3.795459046317694596e-01 1.723863369575744002e+02 1.879675067887648932e-01 2.679584377966169662e+00 1.879675067887648932e-01 1.667380323324315441e+02
1.818910848907883064e+02 3.981892981290124922e-01 2.678246147046593251e+00 3.981892981290124922e-01 1.724600395152513386e+02 1.892685646272424527e-01 2.678246147046593251e+00 1.892685646272424527e-01 1.667925149494122081e+02
1.819167948141141267e+02 4.156540862902229350e-01 2.675447961588937495e+00 4.156540862902229350e-01 1.725117013513721247e+02 1.917482278017526021e-01 2.675447961588937495e+00 1.917482278017526021e-01 1.668035261991410039e+02
1.819632677254438420e+02 4.331188744514333777e-01 2.671434726598092446e+00 4.331188744514333777e-01 1.726092763159542756e+02 1.954261761787597085e-01 2.671434726598092446e+00 1.954261761787597085e-01 1.668437263352561217e+02
1.819851830789617679e+02 4.511004413283192793e-01 2.666371169845205724e+00 4.511004413283192793e-01 1.727064401899925201e+02 2.001945349346813674e-01 2.666371169845205724e+00 2.001945349346813674e-01 1.668740828937194181e+02
1.819846203805576863e+02 4.704814653760044374e-01 2.660140669899375698e+00 4.704814653760044374e-01 1.728069263170434908e+02 2.066254779648704354e-01 2.660140669899375698e+00 2.066254779648704354e-01 1.669028781827764760e+02
1.819349935884060869e+02 4.924711650561328646e-01 2.652638996356736723e+00 4.924711650561328646e-01 1.728820778959993731e+02 2.139908502101453280e-01 2.652638996356736723e+00 2.139908502101453280e-01 1.669065503000819604e+02
1.818788760847409662e+02 5.179609654311461142e-01 2.643532320371337008e+00 5.179609654311461142e-01 1.729742955635995543e+02 2.225617964973484186e-01 2.643532320371337008e+00 2.225617964973484186e-01 1.669304190625674380e+02
1.817687890983911529e+02 5.478612425460067659e-01 2.632665389663290778e+00 5.478612425460067659e-01 1.730352353634323777e+02 2.319243107467849341e-01 2.632665389663290778e+00 2.319243107467849341e-01 1.669253824745204611e+02
1.816341984916413139e+02 5.824905186838601479e-01 2.619632944760221793e+00 5.824905186838601479e-01 1.730931867390983996e+02 2.418677454988918119e-01 2.619632944760221793e+00 2.418677454988918119e-01 1.669182211897792740e+02
1.814643466663749791e+02 6.228889112315456611e-01 2.604117921146869463e+00 6.228889112315456611e-01 1.731352622935992258e+02 2.522455950811010039e-01 2.604117921146869463e+00 2.522455950811010039e-01 1.668916052637121084e+02
1.813464300087080971e+02 6.690906777343896827e-01 2.585822934174440313e+00 6.690906777343896827e-01 1.732492444357411330e+02 2.627677636840488606e-01 2.585822934174440313e+00 2.627677636840488606e-01 1.669276325392528975e+02
1.812044448743553176e+02 7.180942741146050246e-01 2.564963733490098097e+00 7.180942741146050246e-01 1.733581047104146933e+02 2.732126705890255414e-01 2.564963733490098097e+00 2.732126705890255414e-01 1.669437408743959566e+02
1.811027582754499576e+02 7.718144784907802203e-01 2.540708662514738148e+00 7.718144784907802203e-01 1.735240628376568566e+02 2.824447146126427555e-01 2.540708662514738148e+00 2.824447146126427555e-01 1.669924551038507161e+02
1.809830507499348471e+02 8.234821456831161735e-01 2.514574528734002890e+00 8.234821456831161735e-01 1.736904961972299191e+02 2.918203487730554602e-01 2.514574528734002890e+00 2.918203487730554602e-01 1.670196381016256453e+02
1.808981066152030905e+02 8.710680627939541010e-01 2.485869621285866859e+00 8.710680627939541010e-01 1.739111293668137534e+02 2.999794756323931333e-01 2.485869621285866859e+00 2.999794756323931333e-01 1.670735303226123847e+02
1.808243391868552123e+02 9.119919806646322735e-01 2.455669043986438815e+00 9.119919806646322735e-01 1.741618042169974672e+02 3.075984994898754432e-01 2.455669043986438815e+00 3.075984994898754432e-01 1.671332266464382599e+02
1.807592090332333896e+02 9.416094508095604887e-01 2.424297879074352569e+00 9.416094508095604887e-01 1.744400731554999311e+02 3.146679448542417101e-01 2.424297879074352569e+00 3.146679448542417101e-01 1.672025340339381216e+02
1.806447392677335131e+02 9.552264606350158171e-01 2.391546207973988203e+00 9.552264606350158171e-01 1.746947794627729991e+02 3.210325594456063802e-01 2.391546207973988203e+00 3.210325594456063802e-01 1.672372901358820911e+02
1.874858503615575387e+02 6.024808566493334183e+00 4.336119411121007516e+00 6.024808566493334183e+00 1.812861957474107442e+02 -3.137506281308979350e+00 4.336119411121007516e+00 -3.137506281308979350e+00 2.038053343398123616e+02
1.875777058303082470e+02 5.960407582146802774e+00 4.376013543691255059e+00 5.960407582146802774e+00 1.812216628112786907e+02 -3.128945022451368185e+00 4.376013543691255059e+00 -3.128945022451368185e+00 2.038104598863193644e+02
1.876577267846189159e+02 5.873018610393741845e+00 4.417947963009472012e+00 5.873018610393741845e+00 1.811657649134972417e+02 -3.120245427044433750e+00 4.417947963009472012e+00 -3.120245427044433750e+00 2.038098001273918101e+02
1.877661386553598959e+02 5.763945561888794700e+00 4.459724182068719678e+00 5.763945561888794700e+00 1.811653236553758006e+02 -3.112534051192409112e+00 4.459724182068719678e+00 -3.112534051192409112e+00 2.038478299089281052e+02
1.878637872331453309e+02 5.631949792451869108e+00 4.500539848882922023e+00 5.631949792451869108e+00 1.811768190679154884e+02 -3.107301382536978629e+00 4.500539848882922023e+00 -3.107301382536978629e+00 2.038856979431144225e+02
1.879594040372012387e+02 5.479679560229754109e+00 4.539322323131171899e+00 5.479679560229754109e+00 1.812110123158171859e+02 -3.106452208949593619e+00 4.539322323131171899e+00 -3.106452208949593619e+00 2.039356048041828444e+02
1.880326677831410791e+02 5.304678149990106562e+00 4.576124811178592822e+00 5.304678149990106562e+00 1.812430439664584583e+02 -3.111784905571458371e+00 4.576124811178592822e+00 -3.111784905571458371e+00 2.039748888370996838e+02
1.880905747532696068e+02 5.111009818610228628e+00 4.610033582381451112e+00 5.111009818610228628e+00 1.812844143983063816e+02 -3.124984340631510538e+00 4.610033582381451112e+00 -3.124984340631510538e+00 2.040149808973482095e+02
1.881255100526102808e+02 4.899264802033898469e+00 4.641161434233809224e+00 4.899264802033898469e+00 1.813261984209658237e+02 -3.147440264386799136e+00 4.641161434233809224e+00 -3.147440264386799136e+00 2.040469011693317896e+02
1.881189273611171018e+02 4.671580577302711035e+00 4.669506947899264127e+00 4.671580577302711035e+00 1.813522241371118753e+02 -3.180287036541774359e+00 4.669506947899264127e+00 -3.180287036541774359e+00 2.040526517132744289e+02
1.880840892520700720e+02 4.428938269789560955e+00 4.695286495929321013e+00 4.428938269789560955e+00 1.813781030036901711e+02 -3.224251101334935754e+00 4.695286495929321013e+00 -3.224251101334935754e+00 2.040460605087628494e+02
1.880137922930495620e+02 4.172966703685455414e+00 4.718585208508179640e+00 4.172966703685455414e+00 1.814000424709946344e+02 -3.279548831317788071e+00 4.718585208508179640e+00 -3.279548831317788071e+00 2.040194878311833406e+02
1.879128378264443882e+02 3.905220923688428769e+00 4.739674083388871750e+00 3.905220923688428769e+00 1.814260518705220306e+02 -3.345384259268071592e+00 4.739674083388871750e+00 -3.345384259268071592e+00 2.039791921679109521e+02
1.877996267415691705e+02 3.627386507445621078e+00 4.758678687593093315e+00 3.627386507445621078e+00 1.814795512253636787e+02 -3.421428215140216000e+00 4.758678687593093315e+00 -3.421428215140216000e+00 2.039434977910945292e+02
1.876865866264805618e+02 3.339000914289550703e+00 4.774769001824902048e+00 3.339000914289550703e+00 1.815760604775172453e+02 -3.505697875060586721e+00 4.774769001824902048e+00 -3.505697875060586721e+00 2.039278097169830346e+02
1.875284317702756880e+02 3.041366636038463245e+00 4.788208929655317192e+00 3.041366636038463245e+00 1.816746837959117897e+02 -3.595920972529273563e+00 4.788208929655317192e+00 -3.595920972529273563e+00 2.038901126525833263e+02
1.873799902680879086e+02 2.737640583689736395e+00 4.798595521545793829e+00 2.737640583689736395e+00 1.818318036109604350e+02 -3.690104751817817608e+00 4.798595521545793829e+00 -3.690104751817817608e+00 2.038876566467691873e+02
1.872147795384493350e+02 2.424901373088943046e+00 4.804768878736624060e+00 2.424901373088943046e+00 1.820228570268490103e+02 -3.785844285222598415e+00 4.804768878736624060e+00 -3.785844285222598415e+00 2.038997011489969395e+02
1.870350888738967399e+02 2.106842944812115981e+00 4.806462259983982577e+00 2.106842944812115981e+00 1.822481810172232883e+02 -3.880714781330347751e+00 4.806462259983982577e+00 -3.880714781330347751e+00 2.039324450555126873e+02
1.868523895667509009e+02 1.783831358651311483e+00 4.802908784211875393e+00 1.783831358651311483e+00 1.825178968515663200e+02 -3.973383243340150361e+00 4.802908784211875393e+00 -3.973383243340150361e+00 2.040021929248451045e+02
1.848654481276531385e+02 -7.910137964148249878e+00 1.634461653058803865e+00 -7.910137964148249878e+00 2.106559035511980653e+02 -2.080724826506116454e+00 1.634461653058803865e+00 -2.080724826506116454e+00 2.053631556434533252e+02
1.848502125177309097e+02 -7.842944712876341207e+00 1.636446381929652416e+00 -7.842944712876341207e+00 2.106505859889325336e+02 -2.065064567156821962e+00 1.636446381929652416e+00 -2.065064567156821962e+00 2.053522071038591150e+02
1.849272335699114080e+02 -7.749258794135215567e+00 1.641013287135468568e+00 -7.749258794135215567e+00 2.106599562598159139e+02 -2.051203646071829034e+00 1.641013287135468568e+00 -2.051203646071829034e+00 2.053718452159964158e+02
1.850307067135038608e+02 -7.631591026365998509e+00 1.646768091397576850e+00 -7.631591026365998509e+00 2.106184441548676034e+02 -2.039534531667262396e+00 1.646768091397576850e+00 -2.039534531667262396e+00 2.053575141723167121e+02
1.851999599422352958e+02 -7.487889520327170700e+00 1.653093758810412206e+00 -7.487889520327170700e+00 2.105632271367786643e+02 -2.029609488138629736e+00 1.653093758810412206e+00 -2.029609488138629736e+00 2.053477339433373459e+02
1.854103237128653916e+02 -7.322491716624742075e+00 1.659250825709368549e+00 -7.322491716624742075e+00 2.104750924424260177e+02 -2.020509257912334267e+00 1.659250825709368549e+00 -2.020509257912334267e+00 2.053254199101809832e+02
1.856459593713102834e+02 -7.133729799386983039e+00 1.664299746492207799e+00 -7.133729799386983039e+00 2.103327397404982264e+02 -2.010796888890835188e+00 1.664299746492207799e+00 -2.010796888890835188e+00 2.052730208293115766e+02
1.858967131090286955e+02 -6.927529272151462969e+00 1.668686857789032807e+00 -6.927529272151462969e+00 2.101318721664464988e+02 -1.998653454368385152e+00 1.668686857789032807e+00 -1.998653454368385152e+00 2.051899994177636870e+02
1.861913561489824076e+02 -6.704167171447212858e+00 1.671458622253714665e+00 -6.704167171447212858e+00 2.098969794696022007e+02 -1.981973196889482924e+00 1.671458622253714665e+00 -1.981973196889482924e+00 2.051051506844636947e+02
1.864969883045876600e+02 -6.468712006498517297e+00 1.673800840180962313e+00 -6.468712006498517297e+00 2.095980514580820397e+02 -1.959204432056687262e+00 1.673800840180962313e+00 -1.959204432056687262e+00 2.049923079695750801e+02
1.868143266527187336e+02 -6.224898873336911720e+00 1.675632359456211473e+00 -6.224898873336911720e+00 2.092367762357864365e+02 -1.928760496112830181e+00 1.675632359456211473e+00 -1.928760496112830181e+00 2.048566727038890463e+02
1.871755801878113346e+02 -5.977696939805058562e+00 1.677908116599979627e+00 -5.977696939805058562e+00 2.088501682615900847e+02 -1.889705341391646254e+00 1.677908116599979627e+00 -1.889705341391646254e+00 2.047362611551429552e+02
1.875506953435761375e+02 -5.731179202549443907e+00 1.681422842665240225e+00 -5.731179202549443907e+00 2.084082712118237453e+02 -1.841973906284045226e+00 1.681422842665240225e+00 -1.841973906284045226e+00 2.046066101583188015e+02
1.879879898091897417e+02 -5.491625156228065130e+00 1.687026536093332307e+00 -5.491625156228065130e+00 2.079727257141964856e+02 -1.785587178405862341e+00 1.687026536093332307e+00 -1.785587178405862341e+00 2.045253978792559622e+02
1.884509864087427502e+02 -5.262794382424265116e+00 1.695334134028238626e+00 -5.262794382424265116e+00 2.075075834807178978e+02 -1.722404660520127750e+00 1.695334134028238626e+00 -1.722404660520127750e+00 2.044629988990280935e+02
1.889508589489059602e+02 -5.049779176326941510e+00 1.706863330993901640e+00 -5.049779176326941510e+00 2.070396058203399150e+02 -1.653766062104344403e+00 1.706863330993901640e+00 -1.653766062104344403e+00 2.044413207906315222e+02
1.894676370136247954e+02 -4.855204389089928796e+00 1.721442028540470348e+00 -4.855204389089928796e+00 2.065575531651954293e+02 -1.581577758263574385e+00 1.721442028540470348e+00 -1.581577758263574385e+00 2.044487692954915872e+02
1.899880732197837006e+02 -4.680912733383587820e+00 1.738268499743026885e+00 -4.680912733383587820e+00 2.060604509903224653e+02 -1.507954601086847424e+00 1.738268499743026885e+00 -1.507954601086847424e+00 2.044799240120250374e+02
1.904872629628451079e+02 -4.529862063866343824e+00 1.756785873194734338e+00 -4.529862063866343824e+00 2.055393634684854476e+02 -1.435016339773554028e+00 1.756785873194734338e+00 -1.435016339773554028e+00 2.045181585509670583e+02
1.909661919611660892e+02 -4.400364976225016100e+00 1.775359213622003329e+00 -4.400364976225016100e+00 2.050044521036847414e+02 -1.364651160161699073e+00 1.775359213622003329e+00 -1.364651160161699073e+00 2.045672059095875568e+02
2.026210044745812127e+02 6.583504262239119775e+00 -4.434072657434108500e+00 6.583504262239119775e+00 2.038541842502960151e+02 -5.517331008777307311e+00 -4.434072657434108500e+00 -5.517331008777307311e+00 2.282344332044948487e+02
2.028160041985163389e+02 6.467649166580608622e+00 -4.449517894080724290e+00 6.467649166580608622e+00 2.037323757154651389e+02 -5.461620437776770309e+00 -4.449517894080724290e+00 -5.461620437776770309e+00 2.282361562969416298e+02
2.030651131524475943e+02 6.313037904164269243e+00 -4.451721113684318887e+00 6.313037904164269243e+00 2.036700768093527643e+02 -5.400716514291955761e+00 -4.451721113684318887e+00 -5.400716514291955761e+00 2.282876970530071219e+02
2.032083031665660826e+02 6.123878810155506613e+00 -4.439246749803212211e+00 6.123878810155506613e+00 2.035197976971279559e+02 -5.335208047558168687e+00 -4.439246749803212211e+00 -5.335208047558168687e+00 2.282378456841868228e+02
2.034044942661969060e+02 5.898713618691184379e+00 -4.410996975872515158e+00 5.898713618691184379e+00 2.034434863693656155e+02 -5.265359176297787158e+00 -4.410996975872515158e+00 -5.265359176297787158e+00 2.282490578226628202e+02
2.035798947593592629e+02 5.639033612974737153e+00 -4.367799288983432504e+00 5.639033612974737153e+00 2.033671963653022203e+02 -5.190865177974317568e+00 -4.367799288983432504e+00 -5.190865177974317568e+00 2.282503248630967505e+02
2.037339791200533341e+02 5.345393897039913966e+00 -4.311205504129939747e+00 5.345393897039913966e+00 2.032926280779630872e+02 -5.111752191315493299e+00 -4.311205504129939747e+00 -5.111752191315493299e+00 2.282450847360470618e+02
2.038581717819982089e+02 5.021524742479061665e+00 -4.244050297548819906e+00 5.021524742479061665e+00 2.032102952127639810e+02 -5.027961748114539553e+00 -4.244050297548819906e+00 -5.027961748114539553e+00 2.282270448867420782e+02
2.039505309128675776e+02 4.669545449822520844e+00 -4.169714507314274954e+00 4.669545449822520844e+00 2.031176506194732951e+02 -4.939407865714431800e+00 -4.169714507314274954e+00 -4.939407865714431800e+00 2.281962658469723237e+02
2.040222528303285685e+02 4.293020516099897321e+00 -4.091582410806785752e+00 4.293020516099897321e+00 2.030244454192587966e+02 -4.846466116361051846e+00 -4.091582410806785752e+00 -4.846466116361051846e+00 2.281654462233884715e+02
2.040583201474359214e+02 3.895771010589355932e+00 -4.013695880767759405e+00 3.895771010589355932e+00 2.029147535604558072e+02 -4.749852563622100732e+00 -4.013695880767759405e+00 -4.749852563622100732e+00 2.281209711781466467e+02
2.041064277879717395e+02 3.483455967845618506e+00 -3.939325009609147887e+00 3.483455967845618506e+00 2.028342565969495013e+02 -4.649958600552351662e+00 -3.939325009609147887e+00 -4.649958600552351662e+00 2.281104345194242455e+02
2.041508519314806165e+02 3.058620474516609455e+00 -3.869991346429657142e+00 3.058620474516609455e+00 2.027671715522165243e+02 -4.548025816719238890e+00 -3.869991346429657142e+00 -4.548025816719238890e+00 2.281181392533548831e+02
2.041817265839649735e+02 2.627448403295526536e+00 -3.807189613738999334e+00 2.627448403295526536e+00 2.027031034669531948e+02 -4.445987102252672685e+00 -3.807189613738999334e+00 -4.445987102252672685e+00 2.281343528310246711e+02
2.042305516637909761e+02 2.195444707815702667e+00 -3.750663927149870513e+00 2.195444707815702667e+00 2.026739003173213973e+02 -4.345068225911192350e+00 -3.750663927149870513e+00 -4.345068225911192350e+00 2.281885418529265053e+02
2.042935494369396849e+02 1.766242671232363781e+00 -3.697698610422810006e+00 1.766242671232363781e+00 2.026770211438407898e+02 -4.247103713665072000e+00 -3.697698610422810006e+00 -4.247103713665072000e+00 2.282763267064421768e+02
2.043365208174754741e+02 1.344885004414679619e+00 -3.645161143397102954e+00 1.344885004414679619e+00 2.026809990454853505e+02 -4.154629022104649572e+00 -3.645161143397102954e+00 -4.154629022104649572e+00 2.283629022998694893e+02
2.043677703543444295e+02 9.367122621557524287e-01 -3.589103202462187170e+00 9.367122621557524287e-01 2.026960418832971129e+02 -4.069687099160824495e+00 -3.589103202462187170e+00 -4.069687099160824495e+00 2.284555076850685680e+02
2.043733949958363212e+02 5.432755715883034187e-01 -3.525097712573187270e+00 5.432755715883034187e-01 2.027116645881478121e+02 -3.994260360973952650e+00 -3.525097712573187270e+00 -3.994260360973952650e+00 2.285407295675436785e+02
2.043535949095767421e+02 1.704114354711521728e-01 -3.448818026428633221e+00 1.704114354711521728e-01 2.027328335183072454e+02 -3.930735686103033366e+00 -3.448818026428633221e+00 -3.930735686103033366e+00 2.286195185715508273e+02
2.004705569157068510e+02 3.441114595008355759e-02 2.386771465137897508e+00 3.441114595008355759e-02 2.005794592743640123e+02 2.374044769651503461e+00 2.386771465137897508e+00 2.374044769651503461e+00 1.827322527302276569e+02
2.003975666521849348e+02 8.147637218408537718e-02 2.381590405691325518e+00 8.147637218408537718e-02 2.006593268320621632e+02 2.389451177609855481e+00 2.381590405691325518e+00 2.389451177609855481e+00 1.827423525883895081e+02
2.003199191456770336e+02 1.299022522120568957e-01 2.373961579419539891e+00 1.299022522120568957e-01 2.007411380801799794e+02 2.403736632442606158e+00 2.373961579419539891e+00 2.403736632442606158e+00 1.827631748214490415e+02
2.003077888818537247e+02 1.770548986898163313e-01 2.363799681084680415e+00 1.770548986898163313e-01 2.008888352870104939e+02 2.416930744232316908e+00 2.363799681084680415e+00 2.416930744232316908e+00 1.828637038717585312e+02
2.002622062747537655e+02 2.238106290608374571e-01 2.351857652786207176e+00 2.238106290608374571e-01 2.010066129154149337e+02 2.429241488558897100e+00 2.351857652786207176e+00 2.429241488558897100e+00 1.829424159312347626e+02
2.002432381968642403e+02 2.676575213210197202e-01 2.337996609136860915e+00 2.676575213210197202e-01 2.011494752187640529e+02 2.440990346318744120e+00 2.337996609136860915e+00 2.440990346318744120e+00 1.830557978723825272e+02
2.001883114937097616e+02 3.088211760994150623e-01 2.323545478842151013e+00 3.088211760994150623e-01 2.012578037058210612e+02 2.451831866548622951e+00 2.323545478842151013e+00 2.451831866548622951e+00 1.831362089865963014e+02
2.001396219429466043e+02 3.451640274357561933e-01 2.307879630160388995e+00 3.451640274357561933e-01 2.013690494910124755e+02 2.462632496664486581e+00 2.307879630160388995e+00 2.462632496664486581e+00 1.832221635312670855e+02
2.000608605333327432e+02 3.759542832895556019e-01 2.292569807471349641e+00 3.759542832895556019e-01 2.014473646343819837e+02 2.472639294566872703e+00 2.292569807471349641e+00 2.472639294566872703e+00 1.832694550631321135e+02
1.999796351418484903e+02 4.002810811210160136e-01 2.277619535784861426e+00 4.002810811210160136e-01 2.015180001913381602e+02 2.482366206688841448e+00 2.277619535784861426e+00 2.482366206688841448e+00 1.833010490212269019e+02
1.998872911643617840e+02 4.180718057276613386e-01 2.263790217223975887e+00 4.180718057276613386e-01 2.015717509512137156e+02 2.491609487462280725e+00 2.263790217223975887e+00 2.491609487462280725e+00 1.833033628376786055e+02