1.391459999999999919e+00 1.894309999999999938e+00 8.047309999999999519e+00 5.391650000000000276e+00 3.167839999999999989e+00 2.035909999999999886e+00 3.800739999999999785e+00 1.157659999999999911e+00 6.127609999999999779e+00 1.150900000000000034e+00 7.438099999999999712e-01 6.012340000000000018e+00 5.396449999999999747e+00 4.536120000000000374e+00 8.053860000000000241e+00 2.569550000000000001e+00 4.228530000000000122e+00 3.635409999999999808e+00 3.787720000000000198e+00 1.127890000000000059e+00 2.336100000000000065e+00 4.206830000000000069e+00 2.039699999999999847e+00 1.667299999999999893e-01 1.427880000000000038e+00 2.338249999999999940e+00 4.203430000000000000e+00 4.026390000000000136e+00 2.636429999999999829e+00 4.191119999999999735e+00 2.050190000000000179e+00 1.626900000000000013e-01 4.160859999999999559e+00 2.293670000000000098e+00 2.642100000000000115e+00 1.573360000000000092e+00 2.556130000000000013e+00 3.162510000000000154e+00 6.416109999999999758e+00 2.591070000000000206e+00 4.251649999999999707e+00 5.666000000000000203e-02 1.539379999999999971e+00 9.275400000000000311e-01 2.176109999999999989e+00 5.172869999999999635e+00 2.878089999999999815e+00 6.265080000000000204e+00
1.106009999999999938e+00 2.469200000000000006e-01 4.585650000000000226e+00 6.352529999999999788e+00 4.070730000000000182e+00 3.143559999999999910e+00 3.862629999999999786e+00 3.549370000000000136e+00 2.547460000000000058e+00 3.767630000000000035e+00 5.647400000000000198e-01 5.583940000000000126e+00 2.538499999999999979e+00 8.141699999999999493e-01 2.100100000000000022e-01 2.874060000000000059e+00 1.231300000000000061e+00 2.437269999999999825e+00 1.506340000000000012e+00 8.561100000000000376e-01 7.410249999999999559e+00 2.551699999999999857e+00 3.650479999999999947e+00 6.705189999999999984e+00 2.171819999999999862e+00 2.270540000000000003e+00 4.736069999999999780e+00 5.791290000000000049e+00 3.331820000000000004e+00 7.541229999999999656e+00 6.180060000000000109e+00 3.100579999999999892e+00 7.641299999999999759e-01 5.650570000000000093e+00 2.249130000000000074e+00 5.333470000000000155e+00 4.503079999999999750e+00 1.367199999999999971e+00 7.864819999999999922e+00 4.620560000000000223e+00 1.403359999999999941e+00 3.347750000000000004e+00 5.119170000000000442e+00 9.016399999999999970e-01 1.237179999999999946e+00 3.439550000000000107e+00 3.589220000000000077e+00 8.808870000000000644e+00
3.419900000000000162e+00 3.518899999999999917e+00 2.120289999999999786e+00 7.316270000000000273e+00 3.714119999999999866e+00 7.421940000000000204e+00 7.042410000000000281e+00 3.752709999999999990e+00 2.558250000000000135e+00 2.374769999999999825e+00 4.941900000000000182e-01 6.353780000000000427e+00 5.355199999999999960e+00 4.261870000000000047e+00 4.759099999999999997e-01 2.210999999999999854e+00 7.644900000000000029e-01 2.398590000000000000e+00 4.715600000000000236e+00 1.375099999999999989e+00 6.688729999999999620e+00 7.645590000000000330e+00 4.523369999999999891e+00 3.208199999999999941e-01 6.431359999999999744e+00 1.657620000000000093e+00 5.025280000000000413e+00 4.314899999999999736e+00 3.593140000000000001e+00 7.806639999999999802e+00 1.308089999999999975e+00 1.352119999999999989e+00 8.796799999999999287e+00 5.455330000000000013e+00 1.677880000000000038e+00 2.117350000000000065e+00 4.156179999999999986e+00 5.159599999999999742e-01 4.132950000000000124e+00 4.892529999999999824e+00 3.531859999999999999e+00 4.140530000000000044e+00 2.404469999999999885e+00 3.221880000000000077e+00 4.913710000000000022e+00 3.523149999999999782e+00 1.222089999999999899e+00 1.451600000000000112e-01
1.760180000000000078e+00 1.881879999999999997e+00 8.681499999999999773e+00 7.493129999999999846e+00 4.648320000000000007e+00 5.254139999999999588e+00 3.892510000000000137e+00 1.652609999999999912e+00 6.788549999999999862e+00 1.188499999999999890e+00 4.110199999999999965e-01 3.750039999999999818e+00 6.514850000000000030e+00 3.986979999999999968e+00 7.600189999999999557e+00 6.798280000000000101e+00 2.755910000000000082e+00 4.212629999999999875e+00 3.898249999999999993e+00 4.309619999999999784e+00 6.627749999999999808e+00 3.287259999999999849e+00 4.071939999999999671e+00 3.555400000000000227e-01 6.014899999999999913e+00 4.634170000000000122e+00 6.288300000000000001e-01 5.979280000000000150e+00 1.868200000000000083e+00 1.826629999999999976e+00 5.117009999999999614e+00 2.366940000000000044e+00 8.691969999999999530e+00 4.766280000000000072e+00 4.195999999999999730e-02 2.785260000000000069e+00 3.270620000000000083e+00 2.254350000000000076e+00 2.589859999999999829e+00 4.674439999999999706e+00 2.609480000000000022e+00 4.712539999999999729e+00 4.930419999999999803e+00 3.932620000000000005e+00 2.406470000000000109e+00 6.119250000000000078e+00 2.043960000000000221e+00 5.985949999999999882e+00
6.296759999999999913e+00 4.064939999999999998e+00 8.525499999999999190e+00 4.017599999999999838e+00 4.162309999999999732e+00 8.255449999999999733e+00 2.351080000000000059e+00 8.865000000000000657e-02 6.466599999999999682e+00 1.789320000000000022e+00 2.609339999999999993e+00 5.959170000000000300e+00 5.548890000000000100e+00 1.702919999999999989e+00 7.605489999999999640e+00 2.837650000000000006e+00 3.376669999999999838e+00 3.384030000000000094e+00 5.280929999999999680e+00 3.672839999999999883e+00 2.249810000000000088e+00 4.227089999999999570e+00 4.689300000000000246e+00 3.650790000000000202e+00 3.990839999999999943e+00 6.635799999999999477e-01 4.125729999999999897e+00 1.415640000000000009e+00 1.375739999999999963e+00 1.118900000000000006e+00 4.302179999999999893e+00 2.484710000000000196e+00 5.301379999999999981e+00 3.464440000000000186e+00 2.120540000000000092e+00 1.995819999999999927e+00 3.043289999999999829e+00 1.956260000000000110e+00 7.931930000000000369e+00 7.960029999999999717e+00 4.409650000000000070e+00 1.351920000000000011e+00 6.131590000000000096e+00 2.323620000000000019e+00 3.931620000000000115e+00 2.263699999999999879e-01 3.522899999999999920e-01 5.783120000000000260e+00
2.774809999999999999e+00 1.671189999999999953e+00 8.440950000000000841e+00 4.751680000000000348e+00 3.917349999999999888e+00 8.430270000000000152e+00 5.493470000000000297e+00 2.165960000000000107e+00 2.540020000000000167e+00 5.266949999999999577e+00 4.400459999999999816e+00 3.764009999999999856e+00 3.098949999999999871e+00 3.350630000000000219e+00 1.000289999999999901e+00 4.967089999999999783e+00 8.011899999999999578e-01 6.969199999999999839e-01 2.818919999999999870e+00 2.927779999999999827e+00 3.553389999999999826e+00 6.342259999999999565e+00 3.446979999999999933e+00 8.484599999999999920e-01 5.615330000000000155e+00 1.796289999999999942e+00 7.391960000000000086e+00 7.300510000000000055e+00 3.834169999999999856e+00 7.760150000000000325e+00 3.031950000000000145e+00 4.595699999999999785e-01 6.320610000000000284e+00 2.899719999999999853e+00 1.334149999999999947e+00 2.112119999999999997e+00 6.704699999999999882e+00 3.332739999999999814e+00 5.228069999999999773e+00 5.961899999999999977e+00 8.780700000000000172e-01 5.293029999999999902e+00 4.292180000000000106e+00 4.598999999999999755e-01 3.265019999999999811e+00 3.879420000000000091e+00 2.411119999999999930e+00 5.915309999999999846e+00
5.030619999999999870e+00 3.317790000000000017e+00 5.015300000000000313e-01 3.589189999999999880e+00 3.044270000000000032e+00 7.020920000000000272e+00 5.215639999999999610e+00 4.338000000000000189e-01 3.701540000000000052e+00 3.214780000000000193e+00 1.040999999999999981e-01 2.701750000000000096e+00 7.090370000000000061e+00 3.588089999999999780e+00 5.616349999999999731e+00 1.579280000000000017e+00 2.517250000000000210e+00 3.507499999999999840e+00 1.266119999999999912e+00 1.184919999999999973e+00 5.364679999999999893e+00 3.817470000000000141e+00 2.945590000000000153e+00 2.882629999999999804e+00 1.502979999999999983e+00 7.008799999999999475e-01 1.610260000000000025e+00 6.284849999999999604e+00 2.353209999999999802e+00 7.494209999999999816e+00 2.280330000000000190e+00 5.915899999999999492e-01 6.993400000000000283e+00 2.240569999999999951e+00 3.603390000000000093e+00 1.124149999999999983e+00 3.866499999999999826e+00 1.618400000000000061e+00 9.990799999999999681e-01 4.792189999999999728e+00 3.893900000000000139e-01 7.431840000000000224e+00 4.890649999999999942e+00 3.681810000000000027e+00 4.828490000000000393e+00 3.589259999999999895e+00 1.546790000000000109e+00 4.915440000000000254e+00
4.211030000000000051e+00 2.295749999999999957e+00 1.311269999999999936e+00 6.570850000000000080e+00 2.797149999999999803e+00 1.723959999999999937e+00 2.135229999999999961e+00 3.027000000000000246e-01 1.664509999999999934e+00 5.187949999999999839e+00 6.424000000000000543e-02 2.055489999999999817e+00 5.299409999999999954e+00 2.194580000000000197e+00 3.823459999999999859e+00 1.407990000000000075e+00 2.573400000000000132e-01 4.040219999999999700e+00 6.278310000000000279e+00 4.188769999999999882e+00 3.567410000000000192e+00 6.406699999999999839e+00 1.946989999999999998e+00 6.280700000000000394e+00 3.300829999999999931e+00 3.476039999999999797e+00 8.642379999999999285e+00 7.693740000000000023e+00 4.316729999999999734e+00 5.890690000000000204e+00 2.734570000000000167e+00 7.673900000000000166e-01 6.487330000000000041e+00 2.722469999999999946e+00 2.910099999999999909e+00 3.377810000000000201e+00 2.320160000000000000e+00 1.397860000000000102e+00 8.553419999999999135e+00 4.576279999999999681e+00 6.087900000000000533e-01 7.915259999999999962e+00 5.121220000000000105e+00 3.396170000000000133e+00 8.688250000000000028e+00 3.938279999999999781e+00 2.830620000000000136e+00 6.276030000000000442e+00
6.658820000000000405e+00 2.536319999999999908e+00 8.384349999999999525e+00 4.993430000000000035e+00 1.130099999999999993e-01 1.268100000000000060e-01 1.347869999999999902e+00 7.779199999999999449e-01 6.758919999999999817e+00 7.104619999999999713e+00 4.145319999999999894e+00 2.421969999999999956e+00 2.292330000000000201e+00 3.718700000000000117e+00 7.255939999999999834e+00 3.758000000000000007e+00 1.518769999999999953e+00 2.128340000000000121e+00 1.418400000000000105e+00 1.505120000000000013e+00 2.013079999999999981e+00 4.514429999999999943e+00 4.074209999999999887e+00 2.665179999999999882e+00 5.615779999999999994e+00 1.747500000000000053e+00 4.690210000000000434e+00 5.455989999999999895e+00 4.738400000000000389e+00 8.869239999999999569e+00 3.665389999999999926e+00 1.211519999999999930e+00 6.768259999999999721e+00 2.446639999999999926e+00 1.918269999999999920e+00 4.178510000000000169e+00 6.420239999999999725e+00 4.806790000000000340e+00 4.688900000000000290e+00 3.578689999999999927e+00 2.801369999999999916e+00 8.978429999999999467e+00 3.636800000000000033e+00 3.981829999999999981e+00 5.029969999999999608e+00 5.948229999999999684e+00 3.228239999999999998e+00 6.409729999999999706e+00
5.375880000000000436e+00 4.041699999999999737e-01 1.867480000000000029e+00 4.110149999999999970e+00 1.197380000000000111e+00 8.423560000000000159e+00 3.031130000000000102e+00 4.098300000000000276e-01 2.116730000000000000e+00 4.428359999999999630e+00 2.818789999999999907e+00 2.004789999999999850e+00 3.541949999999999932e+00 7.634000000000000508e-02 6.171129999999999782e+00 1.854149999999999965e+00 1.308310000000000084e+00 4.782189999999999941e+00 4.568209999999999660e+00 9.648999999999999799e-01 4.035899999999999821e+00 4.968189999999999884e+00 3.594619999999999926e+00 4.264660000000000117e+00 2.965599999999999792e+00 3.188959999999999795e+00 8.719999999999999973e-02 3.517409999999999926e+00 4.445470000000000255e+00 6.649359999999999715e+00 2.573729999999999851e+00 3.634149999999999991e+00 4.288100000000000023e+00 1.381180000000000074e+00 2.470180000000000042e+00 2.652839999999999865e+00 6.097419999999999618e+00 3.247930000000000206e+00 3.784799999999999831e-01 1.930520000000000014e+00 1.058440000000000047e+00 8.561049999999999827e+00 2.113739999999999952e+00 2.154110000000000191e+00 6.982300000000000395e+00 5.228819999999999801e+00 2.106590000000000185e+00 6.505359999999999587e+00
7.057509999999999728e+00 3.439379999999999882e+00 5.826319999999999943e+00 4.882410000000000139e+00 1.743249999999999966e+00 8.844379999999999242e+00 3.865950000000000220e+00 3.394530000000000047e+00 1.805900000000000061e+00 5.585560000000000080e+00 3.310160000000000213e+00 3.790789999999999882e+00 1.732569999999999943e+00 1.618710000000000093e+00 8.206500000000000128e+00 5.397249999999999659e+00 1.219559999999999977e+00 1.930379999999999985e+00 4.364740000000000286e+00 3.071340000000000181e+00 5.958789999999999587e+00 3.134399999999999853e+00 6.611099999999999755e-01 1.594260000000000010e+00 3.141239999999999810e+00 3.726679999999999993e+00 7.996610000000000440e+00 2.995470000000000077e+00 1.070470000000000033e+00 6.238069999999999560e+00 6.035540000000000127e+00 4.349520000000000053e+00 8.073240000000000194e+00 7.008060000000000400e+00 3.001630000000000020e+00 1.092899999999999983e+00 1.457840000000000025e+00 1.189030000000000031e+00 4.134940000000000282e+00 2.762439999999999785e+00 3.434260000000000090e+00 4.276169999999999582e+00 4.353839999999999932e+00 4.124900000000000233e-01 4.240850000000000009e+00 5.327460000000000306e+00 9.797200000000000353e-01 6.765349999999999753e+00
1.445359999999999978e+00 2.331799999999999873e+00 7.158870000000000289e+00 4.595690000000000275e+00 3.823490000000000055e+00 2.642430000000000057e+00 7.082869999999999777e+00 3.191320000000000157e+00 2.357029999999999959e+00 3.992239999999999789e+00 2.618219999999999992e+00 7.538899999999999935e+00 5.749069999999999681e+00 2.655969999999999942e+00 4.658800000000000163e-01 1.876339999999999897e+00 1.680490000000000039e+00 4.765979999999999883e+00 5.403159999999999741e+00 4.326260000000000439e+00 6.864849999999999675e+00 1.636819999999999942e+00 6.142199999999999882e-01 6.446699999999999653e-01 2.902039999999999953e+00 3.659279999999999866e+00 4.662379999999999747e+00 4.546400000000000219e+00 1.461770000000000014e+00 5.250399999999999956e+00 5.366380000000000372e+00 6.120499999999999829e-01 3.025189999999999824e+00 5.901609999999999800e+00 4.284089999999999954e+00 4.677889999999999660e+00 2.603250000000000064e+00 2.790900000000000158e+00 2.357200000000000129e-01 4.082259999999999778e+00 2.268300000000000038e-01 2.593699999999999894e-01 3.326150000000000162e+00 1.518780000000000019e+00 2.841429999999999900e+00 2.540729999999999933e+00 4.075750000000000206e+00 7.025179999999999758e+00
3.252200000000000202e+00 3.753629999999999800e+00 2.750179999999999847e+00 1.124009999999999954e+00 1.792700000000000127e-01 7.595000000000000362e-02 4.911319999999999908e+00 4.580189999999999984e+00 4.987239999999999895e+00 3.102329999999999810e+00 4.104000000000000009e-02 1.342969999999999997e+00 3.209610000000000074e+00 1.936560000000000059e+00 6.441819999999999879e+00 1.519600000000000062e+00 1.842200000000000060e+00 2.418829999999999814e+00 6.680679999999999730e+00 3.798080000000000123e+00 6.632340000000000124e+00 4.731559999999999988e+00 1.488299999999999901e-01 4.948299999999999921e-01 6.407449999999999868e+00 1.642320000000000002e+00 5.237090000000000245e+00 5.737280000000000157e+00 3.508169999999999789e+00 3.273660000000000014e+00 4.174990000000000201e+00 2.807469999999999910e+00 1.068310000000000093e+00 2.770020000000000149e+00 3.625929999999999875e+00 5.199220000000000397e+00 3.081739999999999924e+00 1.573309999999999986e+00 4.382990000000000386e+00 7.048280000000000101e+00 3.242090000000000138e+00 8.835200000000000387e+00 5.444029999999999703e+00 5.708199999999999941e-01 3.610009999999999941e+00 3.500770000000000159e+00 4.687470000000000248e+00 7.227520000000000167e+00
6.492899999999999672e+00 1.724140000000000006e+00 1.921880000000000033e+00 3.459709999999999841e+00 4.244069999999999787e+00 7.541299999999999670e+00 1.761220000000000008e+00 2.437699999999999867e-01 6.715700000000000003e-01 2.009780000000000122e+00 1.494010000000000060e+00 4.286909999999999776e+00 4.344319999999999737e+00 1.765470000000000095e+00 1.128120000000000012e+00 5.634979999999999656e+00 4.161000000000000254e-01 3.493549999999999933e+00 2.625789999999999846e+00 2.001050000000000217e+00 8.590949999999999420e+00 6.411959999999999660e+00 4.586520000000000152e+00 8.100020000000000664e+00 4.942339999999999733e+00 1.840459999999999985e+00 4.775000000000000355e+00 4.777149999999999785e+00 3.986779999999999990e+00 2.784469999999999779e+00 6.441819999999999879e+00 2.932110000000000216e+00 6.519630000000000258e+00 1.927789999999999893e+00 3.193529999999999980e+00 1.296459999999999946e+00 2.665690000000000115e+00 3.917069999999999830e+00 5.423009999999999664e+00 4.746789999999999843e+00 4.524619999999999642e+00 6.025990000000000180e+00 6.701830000000000176e+00 4.161290000000000155e+00 4.334900000000000198e+00 3.256749999999999812e+00 1.823390000000000066e+00 6.139689999999999870e+00
6.848720000000000141e+00 2.902559999999999807e+00 2.174539999999999917e+00 4.339800000000000324e+00 2.635609999999999786e+00 2.211590000000000167e+00 2.988550000000000040e+00 2.555410000000000181e+00 1.999000000000000082e-02 3.996000000000000107e-01 6.193199999999999816e-01 2.327109999999999790e+00 4.146060000000000301e+00 2.609299999999999953e-01 4.951859999999999928e+00 3.047709999999999919e+00 2.691419999999999924e+00 4.278819999999999624e+00 6.749789999999999957e+00 3.720709999999999962e+00 7.109910000000000174e+00 2.788910000000000000e+00 2.166200000000000070e-01 2.001199999999999868e+00 5.597120000000000317e+00 1.739759999999999973e+00 4.026749999999999829e+00 4.797259999999999636e+00 2.240940000000000154e+00 6.345579999999999998e+00 5.505320000000000213e+00 2.801219999999999821e+00 8.602880000000000749e+00 5.162849999999999717e+00 4.290110000000000312e+00 4.145059999999999967e+00 1.952469999999999928e+00 3.100399999999999823e-01 8.179280000000000328e+00 2.270939999999999959e+00 1.874489999999999990e+00 6.410879999999999690e+00 3.576750000000000096e+00 4.041220000000000034e+00 6.018089999999999939e+00 4.859210000000000029e+00 6.498500000000000387e-01 2.213299999999999990e-01
7.071959999999999802e+00 3.510580000000000034e+00 4.741000000000000075e-02 5.910280000000000200e+00 2.944910000000000139e+00 6.005930000000000213e+00 1.856179999999999941e+00 1.975060000000000038e+00 2.137849999999999806e+00 4.845320000000000071e+00 3.484890000000000043e+00 2.261700000000000099e-01 3.305359999999999854e+00 3.795920000000000183e+00 2.313250000000000028e+00 6.954119999999999635e+00 3.341470000000000162e+00 4.185150000000000148e+00 4.763760000000000439e+00 3.868609999999999882e+00 4.272439999999999571e+00 3.519719999999999960e+00 4.839000000000000246e-02 2.104509999999999881e+00 4.920930000000000248e+00 1.948749999999999982e+00 1.903200000000000003e+00 2.288990000000000080e+00 1.461850000000000094e+00 6.426179999999999559e+00 3.156130000000000102e+00 1.623550000000000049e+00 1.244999999999999996e-01 6.243900000000000006e-01 1.043379999999999974e+00 3.828139999999999876e+00 3.551709999999999923e+00 1.748070000000000013e+00 3.947189999999999976e+00 4.486460000000000115e+00 1.750620000000000065e+00 6.121129999999999960e+00 2.890309999999999935e+00 3.758960000000000079e+00 6.504509999999999792e+00 5.676409999999999734e+00 1.219889999999999919e+00 8.183669999999999334e+00
4.683440000000000047e+00 2.501440000000000108e+00 8.023450000000000415e+00 1.940110000000000001e+00 2.341569999999999929e+00 8.517849999999999255e+00 2.406680000000000152e+00 3.205000000000000071e-01 6.793650000000000411e+00 3.815640000000000143e+00 1.056480000000000086e+00 2.360380000000000145e+00 2.944230000000000125e+00 2.255580000000000140e+00 6.402059999999999640e+00 6.111200000000000188e+00 1.578920000000000101e+00 1.829199999999999937e+00 4.979020000000000223e+00 3.729940000000000033e+00 2.359259999999999913e+00 2.327669999999999906e+00 3.945460000000000189e+00 2.308260000000000201e+00 3.320889999999999898e+00 3.645280000000000076e+00 4.532820000000000071e+00 6.352789999999999715e+00 4.466120000000000090e+00 3.981000000000000094e-01 5.901609999999999800e+00 2.790799999999999947e+00 6.437289999999999957e+00 6.061700000000000088e+00 3.889219999999999899e+00 4.400260000000000282e+00 5.029080000000000439e+00 1.683079999999999909e+00 4.080549999999999677e+00 3.716559999999999864e+00 4.799830000000000041e+00 8.663119999999999266e+00 1.812670000000000003e+00 1.420849999999999946e+00 4.732219999999999871e+00 5.074010000000000353e+00 9.192000000000000171e-01 6.718930000000000291e+00
3.580960000000000143e+00 4.589949999999999974e+00 1.665620000000000100e+00 5.319480000000000430e+00 3.247430000000000039e+00 1.922060000000000102e+00 4.431840000000000224e+00 4.259599999999999831e+00 8.282189999999999941e+00 2.079819999999999780e+00 1.833450000000000024e+00 2.790020000000000167e+00 3.504840000000000177e+00 2.350810000000000066e+00 4.463519999999999932e+00 4.662539999999999907e+00 4.504260000000000375e+00 4.194209999999999994e+00 5.441749999999999865e+00 3.081189999999999873e+00 6.424009999999999998e+00 5.890900000000000247e+00 2.009830000000000005e+00 4.577340000000000408e+00 6.535280000000000200e+00 3.897460000000000147e+00 5.088330000000000020e+00 5.157599999999999962e-01 5.804899999999999505e-01 6.238450000000000273e+00 6.143860000000000099e+00 1.777109999999999967e+00 2.058999999999999997e-01 4.349120000000000097e+00 1.365399999999999947e+00 2.253929999999999989e+00 3.217109999999999914e+00 1.552370000000000028e+00 2.343200000000000005e-01 2.898120000000000029e+00 1.319819999999999993e+00 6.848010000000000375e+00 7.644820000000000171e+00 3.430890000000000217e+00 7.347500000000000142e+00 6.996800000000000352e+00 4.494679999999999787e+00 5.138700000000000490e-01
3.824089999999999989e+00 2.559600000000000097e+00 1.750140000000000029e+00 3.014870000000000161e+00 1.960749999999999993e+00 6.405669999999999753e+00 5.083929999999999616e+00 4.249729999999999563e+00 2.249639999999999862e+00 6.897389999999999688e+00 4.053639999999999688e+00 5.891960000000000086e+00 5.144689999999999763e+00 1.394649999999999945e+00 5.766999999999999904e-02 6.372099999999999653e+00 2.194859999999999811e+00 2.065469999999999917e+00 1.560929999999999929e+00 2.347299999999999942e-01 6.817630000000000301e+00 5.873050000000000104e+00 3.756730000000000125e+00 5.738000000000000045e-02 1.081469999999999931e+00 9.314400000000000457e-01 4.453789999999999694e+00 5.890080000000000204e+00 2.200239999999999974e+00 7.158529999999999838e+00 3.484550000000000036e+00 3.248439999999999994e+00 8.579789999999999139e+00 5.177559999999999718e+00 3.614700000000000135e-01 1.946080000000000032e+00 3.917769999999999975e+00 9.875000000000000444e-01 4.268580000000000041e+00 5.212749999999999773e+00 3.121780000000000221e+00 4.568640000000000256e+00 7.499950000000000117e+00 3.558689999999999909e+00 3.959900000000000198e+00 2.320590000000000153e+00 1.383240000000000025e+00 2.101500000000000035e-01
2.170819999999999972e+00 1.725710000000000077e+00 8.682359999999999189e+00 5.514990000000000059e+00 3.999490000000000212e+00 2.621710000000000207e+00 7.055360000000000298e+00 4.039229999999999876e+00 6.746419999999999639e+00 4.518930000000000113e+00 4.295279999999999987e+00 6.247849999999999682e+00 6.813119999999999621e+00 4.853460000000000107e+00 8.652290000000000703e+00 4.351099999999999746e+00 5.287199999999999678e-01 4.856069999999999887e+00 4.048860000000000348e+00 1.592559999999999976e+00 2.334060000000000024e+00 5.135819999999999830e+00 2.857029999999999959e+00 4.040199999999999902e-01 6.618970000000000020e+00 2.964710000000000178e+00 4.536690000000000111e+00 3.856390000000000207e+00 3.402369999999999894e+00 4.157289999999999708e+00 1.801530000000000076e+00 1.039269999999999916e+00 4.203059999999999796e+00 2.758849999999999802e+00 4.414369999999999905e+00 2.022769999999999957e+00 2.525840000000000085e+00 1.921130000000000004e+00 6.192090000000000316e+00 2.941809999999999814e+00 3.809190000000000076e+00 8.041290000000000049e+00 1.282259999999999955e+00 1.933459999999999956e+00 2.084379999999999900e+00 5.211339999999999861e+00 1.993400000000000061e+00 6.927010000000000112e+00
1.789250000000000007e+00 2.217449999999999921e+00 6.397170000000000023e+00 2.100220000000000198e+00 1.089800000000000102e+00 1.500400000000000067e-01 1.229209999999999914e+00 5.784000000000000252e-02 2.021259999999999835e+00 2.352959999999999940e+00 3.735059999999999825e+00 4.313690000000000246e+00 4.821530000000000094e+00 8.532800000000000384e-01 8.379110000000000724e+00 3.691790000000000127e+00 2.991229999999999833e+00 8.570880000000000720e+00 6.031959999999999766e+00 1.360360000000000014e+00 4.533389999999999809e+00 4.940579999999999750e+00 2.328320000000000167e+00 1.805490000000000039e+00 6.087100000000000399e+00 3.214100000000000179e+00 3.267800000000000149e-01 3.248419999999999863e+00 -6.843000000000000471e-02 6.782359999999999722e+00 5.104400000000000048e-01 -1.120000000000000023e-01 6.351020000000000110e+00 2.702780000000000182e+00 2.246500000000000163e+00 2.167450000000000099e+00 3.722339999999999982e+00 1.103350000000000053e+00 4.193529999999999980e+00 4.529600000000000293e+00 3.504430000000000156e+00 4.358699999999999797e+00 6.104510000000000325e+00 4.125680000000000014e+00 2.054489999999999927e+00 4.422620000000000218e+00 2.220880000000000187e+00 6.396969999999999601e+00
1.161640000000000006e+00 1.264999999999999979e-02 2.270560000000000134e+00 3.358099999999999863e+00 2.814010000000000122e+00 2.537599999999999856e-01 3.472480000000000011e+00 6.502299999999999747e-01 9.411300000000000221e-01 6.191900000000000404e+00 3.997240000000000126e+00 3.520030000000000214e+00 5.789060000000000095e+00 4.357400000000000162e+00 6.426730000000000054e+00 5.528739999999999988e+00 1.168369999999999909e+00 3.207999999999999741e-01 3.977139999999999898e+00 3.707059999999999800e+00 4.857520000000000060e+00 4.534370000000000012e+00 6.601000000000000201e-01 4.780050000000000132e+00 4.558489999999999931e+00 1.917229999999999990e+00 3.152140000000000164e+00 1.153110000000000079e+00 1.656360000000000054e+00 4.577589999999999826e+00 1.557749999999999968e+00 -1.195599999999999996e-01 8.448999999999999844e+00 4.167159999999999975e+00 2.168179999999999996e+00 6.697239999999999860e+00 1.023349999999999982e+00 1.211039999999999894e+00 6.781130000000000102e+00 7.637520000000000309e+00 3.739279999999999937e+00 7.473440000000000083e+00 6.697420000000000151e+00 2.342480000000000118e+00 1.678209999999999980e+00 5.740219999999999878e+00 2.787869999999999848e+00 8.645250000000000767e+00
3.951140000000000096e+00 4.822330000000000005e+00 7.642229999999999634e+00 6.212349999999999817e+00 4.837570000000000370e+00 8.335940000000000794e+00 2.261449999999999960e+00 2.612080000000000179e+00 7.780120000000000147e+00 1.631259999999999932e+00 2.787760000000000016e+00 3.830909999999999815e+00 4.689309999999999867e+00 2.952519999999999811e+00 3.958250000000000046e+00 5.400890000000000413e+00 3.859869999999999912e+00 1.893550000000000066e+00 2.658290000000000042e+00 4.000020000000000131e+00 1.934739999999999904e+00 3.516929999999999890e+00 1.828040000000000109e+00 2.041040000000000187e+00 6.831199999999999495e-01 7.419400000000000439e-01 3.419439999999999813e+00 1.552920000000000078e+00 9.804399999999999782e-01 9.571199999999999708e-01 5.089039999999999786e+00 8.886199999999999655e-01 6.954170000000000407e+00 2.943670000000000009e+00 4.319600000000000328e+00 5.382920000000000371e+00 2.124210000000000154e+00 8.133599999999999719e-01 6.062979999999999592e+00 4.950470000000000148e+00 2.510110000000000063e+00 8.552880000000000038e+00 3.616540000000000088e+00 6.676400000000000112e-01 4.134830000000000005e+00 5.070619999999999905e+00 3.075769999999999893e+00 6.347809999999999953e+00
3.548099999999999810e+00 4.226200000000000401e+00 3.811100000000000043e-01 4.325859999999999594e+00 5.365100000000000424e-01 7.157560000000000144e+00 2.813849999999999962e+00 6.214600000000000124e-01 5.221529999999999561e+00 7.052410000000000068e+00 2.983900000000000219e+00 6.126559999999999562e+00 7.162779999999999703e+00 3.484500000000000153e+00 8.526939999999999742e+00 3.677639999999999798e+00 3.762360000000000149e+00 4.916570000000000107e+00 5.476609999999999978e+00 1.048580000000000068e+00 4.724190000000000111e+00 4.275859999999999772e+00 2.902149999999999785e+00 7.338210000000000122e+00 5.631050000000000111e+00 2.099709999999999965e+00 9.128119999999999123e+00 6.778159999999999741e+00 3.764359999999999928e+00 1.597569999999999935e+00 2.399350000000000094e+00 1.253640000000000088e+00 6.666299999999999448e-01 3.177290000000000170e+00 4.349599999999999689e+00 2.654900000000000038e+00 6.343539999999999957e+00 2.136499999999999844e+00 2.772990000000000066e+00 6.116699999999999804e+00 4.053569999999999673e+00 3.443270000000000053e+00 4.188159999999999883e+00 1.613680000000000003e+00 1.971950000000000092e+00 1.026580000000000048e+00 4.350100000000000078e-01 7.205770000000000231e+00