-5.942920000000000424e-01 1.216629999999999934e-01 -6.620960000000000178e-01 -6.496239999999999792e-01 -8.696669999999999678e-01 2.399459999999999926e-01 -4.008400000000000157e-02 2.237389999999999934e-01 -1.295684999999999976e+00 3.760047999999999835e+00 -1.060508000000000006e+00 -6.504929999999999879e-01 -1.850600000000000023e-01 -1.868144000000000027e+00 -4.865630000000000233e-01 3.687000000000000277e-01 1.370999999999999996e-02 5.438380000000000436e-01 -8.374359999999999582e-01 8.900730000000000031e-01 -3.560169999999999724e-01 2.005333999999999950e+00 2.129839000000000038e+00 6.295819999999999750e-01 -6.943696000000000090e+00 -2.049459000000000142e+00 5.174969999999999848e-01 -5.533310000000000173e-01 -6.757570000000000521e-01 -4.771290000000000253e-01 5.978339999999999765e-01 -4.558249999999999802e-01 6.003999999999999788e-03 -1.665459999999999996e-01 1.066005000000000091e+00 -2.640199999999999839e-02 -1.386169999999999902e-01 6.158949999999999703e-01 2.318116999999999983e+00 5.998400000000000259e-02 -8.564900000000000291e-02 6.483149999999999746e-01 1.845399000000000012e+00 1.328362999999999960e+00 -1.252089999999999925e+00 1.471387000000000000e+00 6.757220000000000448e-01 3.031739999999999990e-01
7.312229999999999563e-01 8.499539999999999873e-01 8.926239999999999730e-01 3.875016000000000016e+00 3.710958999999999897e+00 4.159677000000000291e+00 -4.643410000000000037e-01 2.390670000000000017e-01 -6.819749999999999979e-01 -1.865290000000000004e-01 -2.265267000000000142e+00 1.039799999999999926e-02 1.646589999999999998e-01 -1.129652000000000100e+00 4.100659999999999861e-01 5.010289999999999466e-01 -1.765821000000000085e+00 -1.800970000000000071e-01 7.473399999999999488e-02 1.552794000000000008e+00 5.418300000000000338e-01 -2.564020000000000188e+00 -3.160496000000000194e+00 5.015935999999999950e+00 5.947529999999999761e-01 6.624649999999999705e-01 -2.596559999999999979e-01 8.262939999999999729e-01 3.767829999999999790e-01 -1.022064000000000084e+00 -6.498359999999999692e-01 -6.616969999999999796e-01 -1.268720000000000070e+00 -7.695170000000000066e-01 -1.275315999999999894e+00 -8.109156000000000475e+00 -6.409409999999999830e-01 2.300470000000000015e-01 2.802899999999999836e-01 -1.086000000000000021e-01 5.345649999999999569e-01 -3.562589999999999923e-01 -1.716121999999999925e+00 1.185882000000000103e+00 -4.062609999999999832e-01 3.321979999999999933e-01 9.157319999999999904e-01 9.733669999999999822e-01
7.391839999999999522e-01 1.098594999999999988e+00 5.404330000000000522e-01 1.091048999999999936e+00 -2.010692000000000146e+00 -2.333599999999999910e-02 1.667778999999999900e+00 9.681549999999999878e-01 -2.373059000000000029e+00 1.093261000000000038e+00 -1.024148000000000058e+00 -5.743120000000000447e-01 -9.088373000000000701e+00 -8.486299999999999399e-02 -4.205780000000000074e-01 1.113140000000000018e+00 -1.581336000000000075e+00 -6.260470000000000201e-01 1.145599999999999952e-01 -1.202489999999999948e-01 8.572300000000000475e-01 -7.330090000000000217e-01 1.621501000000000081e+00 2.795833000000000013e+00 4.728700000000000125e-01 -9.410629999999999828e-01 2.082432999999999979e+00 -2.206730000000000080e-01 9.082139999999999658e-01 -2.664496999999999893e+00 -2.433235999999999954e+00 9.726690000000000058e-01 -8.308889999999999887e-01 2.441919999999999924e-01 4.815860000000000141e-01 1.583191999999999933e+00 -2.187931999999999988e+00 -4.656699999999999728e-02 -1.411019999999999941e+00 7.775762000000000285e+00 2.720219999999999860e-01 5.004009999999999847e-01 9.394850000000000145e-01 -1.132331999999999894e+00 6.725719999999999477e-01 -5.880589999999999984e-01 6.185070000000000290e-01 -1.083559999999999940e-01
