7.142260000000000275e+00 5.568679999999999630e+00 1.792149999999999910e+00 1.660709999999999908e+00 3.714150000000000063e+00 1.970630000000000104e+00 5.335899999999999643e+00 3.469059999999999810e+00 5.833999999999999631e+00 2.102679999999999882e+00 5.318529999999999980e+00 6.223999999999999672e-02 2.110059999999999825e+00 1.899650000000000061e+00 3.667469999999999786e+00 8.010000000000000453e-02 1.683370000000000033e+00 1.999030000000000085e+00 5.324430000000000440e+00 7.155680000000000263e+00 1.887380000000000058e+00 3.750570000000000181e+00 5.243970000000000020e+00 5.607610000000000205e+00 7.263860000000000205e+00 1.754999999999999893e-01 3.771770000000000067e+00 5.103830000000000311e+00 2.221299999999999941e-01 5.666890000000000427e+00 1.627320000000000100e+00 7.133919999999999817e+00 5.498649999999999594e+00 7.200280000000000236e+00 3.927340000000000053e+00 7.527750000000000163e+00 3.477949999999999875e+00 5.703599999999999781e+00 1.939089999999999980e+00 5.488330000000000375e+00 3.742599999999999927e+00 1.912930000000000019e+00 3.693169999999999842e+00 3.803850000000000176e+00 3.876780000000000115e+00 3.476630000000000109e+00 1.919659999999999922e+00 5.809660000000000046e+00 1.712059999999999915e+00 3.930060000000000109e+00 5.582729999999999748e+00 7.119970000000000354e+00 5.608329999999999593e+00 5.466540000000000177e+00 7.035129999999999661e+00 3.566769999999999996e+00 3.683149999999999924e+00 1.661299999999999999e-01 7.295029999999999681e+00 7.575000000000000178e+00 1.575350000000000028e+00 5.389509999999999579e+00 3.859109999999999818e+00 1.569839999999999902e+00 6.985680000000000334e+00 2.030009999999999870e+00 5.582290000000000418e+00 1.733000000000000096e+00 5.759999999999999842e-02 3.761820000000000164e+00 1.970939999999999914e+00 2.074699999999999989e+00 5.308819999999999872e+00 5.625539999999999985e+00 7.482240000000000002e+00 3.323920000000000208e+00 7.132520000000000415e+00 3.739580000000000126e+00 7.195640000000000036e+00 1.829609999999999959e+00 5.740440000000000431e+00 5.465650000000000119e+00 5.723659999999999748e+00 3.733960000000000168e+00 5.930259999999999643e+00 1.598850000000000104e+00 3.807459999999999845e+00 3.373000000000000220e+00 2.182300000000000073e-01 1.490000000000000005e-03 3.781779999999999919e+00 3.609179999999999833e+00 1.690399999999999958e-01 2.046910000000000007e+00 2.099779999999999980e+00 5.736000000000000126e-02
2.070710000000000051e+00 1.973629999999999995e+00 6.865000000000000269e-02 1.036600000000000021e-01 3.697950000000000070e+00 8.760000000000000425e-03 1.502420000000000089e+00 1.961130000000000040e+00 3.876310000000000144e+00 5.878160000000000274e+00 5.560419999999999696e+00 7.355520000000000280e+00 3.909959999999999880e+00 1.993049999999999988e+00 5.247819999999999929e+00 5.172880000000000145e+00 7.387509999999999799e+00 5.788190000000000168e+00 3.832500000000000018e+00 5.244000000000000050e-02 3.769140000000000157e+00 3.598749999999999893e+00 3.917260000000000186e+00 3.909440000000000026e+00 1.509859999999999980e+00 3.737099999999999866e+00 2.171660000000000146e+00 1.784720000000000084e+00 5.352739999999999831e+00 4.800000000000000122e-04 7.022100000000000009e+00 7.200709999999999944e+00 7.429269999999999818e+00 5.503940000000000055e+00 3.829270000000000174e+00 5.624909999999999854e+00 -1.007799999999999946e-01 5.851880000000000415e+00 5.414539999999999687e+00 1.685720000000000107e+00 3.868469999999999853e+00 5.326880000000000059e+00 1.699400000000000022e+00 1.083599999999999980e-01 5.754540000000000433e+00 5.411330000000000418e+00 7.119270000000000209e+00 1.549690000000000012e+00 -7.136000000000000676e-02 1.953859999999999930e+00 1.622959999999999958e+00 1.757549999999999946e+00 5.726009999999999600e+00 3.894649999999999945e+00 3.296469999999999789e+00 7.209590000000000387e+00 7.423099999999999810e+00 3.334820000000000118e+00 5.560389999999999944e+00 1.957969999999999988e+00 7.254400000000000404e+00 5.525610000000000355e+00 2.009539999999999882e+00 1.691629999999999967e+00 1.910999999999999921e-01 1.546890000000000098e+00 5.709419999999999717e+00 1.729109999999999925e+00 3.614040000000000141e+00 -1.896000000000000116e-02 7.258020000000000138e+00 3.241249999999999964e+00 5.343469999999999942e+00 1.844670000000000032e+00 2.667900000000000271e-01 5.562120000000000175e+00 5.644619999999999749e+00 3.762329999999999952e+00 5.008810000000000429e+00 4.124430000000000263e+00 2.048169999999999824e+00 7.100150000000000183e+00 3.762630000000000141e+00 3.950309999999999988e+00 3.690729999999999844e+00 3.660719999999999974e+00 2.068000000000000047e-02 3.397349999999999870e+00 5.559700000000000308e+00 5.832370000000000054e+00 7.022029999999999994e+00 1.645440000000000014e+00 5.848419999999999952e+00 3.692950000000000177e+00 1.654900000000000038e+00 1.996650000000000036e+00
5.539950000000000152e+00 3.684759999999999813e+00 5.300500000000000433e+00 1.792040000000000077e+00 2.586399999999999810e-01 1.758790000000000076e+00 5.644980000000000331e+00 1.948490000000000055e+00 8.981999999999999706e-02 1.642149999999999999e+00 5.870529999999999582e+00 6.998140000000000249e+00 8.035000000000000475e-02 5.617449999999999832e+00 5.443469999999999587e+00 5.207910000000000039e+00 5.500320000000000320e+00 3.627860000000000085e+00 5.320299999999999585e+00 7.004059999999999953e+00 1.685950000000000060e+00 5.269000000000000128e+00 4.017920000000000158e+00 1.902789999999999981e+00 1.074500000000000038e-01 1.858100000000000085e+00 1.822149999999999936e+00 3.617070000000000007e+00 1.849709999999999965e+00 1.664139999999999953e+00 1.617119999999999891e+00 2.589799999999999880e-01 5.377799999999999692e+00 5.396040000000000170e+00 2.106349999999999945e+00 3.380310000000000148e+00 2.017869999999999830e+00 1.879159999999999942e+00 7.011260000000000048e+00 7.156819999999999737e+00 7.247449999999999726e+00 3.392879999999999896e+00 1.164599999999999941e-01 2.184619999999999784e+00 5.344409999999999883e+00 3.433110000000000106e+00 5.408240000000000158e+00 1.466739999999999933e+00 3.851989999999999803e+00 3.807329999999999881e+00 6.982280000000000264e+00 6.870330000000000048e+00 5.692719999999999558e+00 1.746869999999999923e+00 3.453969999999999985e+00 5.823620000000000019e+00 5.546030000000000015e+00 5.724169999999999980e+00 7.533459999999999823e+00 5.388480000000000381e+00 1.913140000000000063e+00 5.585569999999999702e+00 3.449759999999999938e+00 4.154490000000000016e+00 2.957199999999999829e-01 3.471210000000000129e+00 1.778929999999999900e+00 3.689449999999999896e+00 1.827450000000000019e+00 3.128999999999999837e-02 3.952850000000000197e+00 3.600049999999999972e+00 3.664429999999999854e+00 3.637630000000000141e+00 3.610300000000000065e+00 7.237860000000000404e+00 3.889720000000000066e+00 4.297999999999999737e-02 1.939540000000000042e+00 3.720800000000000107e+00 5.283220000000000027e+00 3.648789999999999978e+00 7.349969999999999892e+00 1.333499999999999963e-01 1.900079999999999991e+00 1.810650000000000093e+00 3.539540000000000131e+00 3.774480000000000057e+00 1.858260000000000023e+00 5.285870000000000068e+00 5.354529999999999568e+00 5.841899999999999871e+00 6.946720000000000006e+00 7.221180000000000376e+00 9.468000000000000027e-02 1.340699999999999947e-01
5.887220000000000120e+00 1.900100000000000122e-01 1.767949999999999910e+00 3.716769999999999907e+00 3.833260000000000112e+00 7.117999999999999328e-02 2.034460000000000157e+00 7.395850000000000257e+00 5.526180000000000092e+00 2.106930000000000192e+00 1.815620000000000012e+00 4.040519999999999889e+00 1.600170000000000092e+00 7.172170000000000378e+00 1.591900000000000093e+00 1.856260000000000021e+00 5.665309999999999846e+00 3.726599999999999913e+00 3.652299999999999880e+00 1.565100000000000102e-01 1.396600000000000064e-01 5.533739999999999881e+00 1.904660000000000020e+00 3.583990000000000009e+00 5.119200000000000195e+00 5.291949999999999932e+00 7.699999999999999597e-04 1.958539999999999948e+00 3.830740000000000034e+00 1.882949999999999902e+00 4.265700000000000047e-01 1.925789999999999891e+00 2.042380000000000084e+00 2.197290000000000187e+00 3.528540000000000010e+00 5.706590000000000273e+00 5.282659999999999911e+00 3.634780000000000122e+00 1.832999999999999963e+00 3.570580000000000087e+00 5.660300000000000331e+00 1.698139999999999983e+00 1.840119999999999978e+00 1.800510000000000055e+00 3.169000000000000289e-02 4.017699999999999605e+00 1.765870000000000051e+00 5.681849999999999845e+00 3.797719999999999985e+00 5.862750000000000128e+00 5.680589999999999584e+00 3.729699999999999793e+00 3.891729999999999912e+00 3.496459999999999901e+00 5.377839999999999954e+00 3.906499999999999861e+00 5.748980000000000423e+00 7.016539999999999999e+00 5.176999999999999602e+00 1.837250000000000050e+00 7.344500000000000028e+00 7.282300000000000217e+00 3.910060000000000091e+00 3.494850000000000012e+00 1.742520000000000069e+00 1.671740000000000004e+00 7.300819999999999865e+00 5.520349999999999646e+00 5.577569999999999695e+00 2.508000000000000229e-01 2.047180000000000000e+00 5.545270000000000366e+00 7.178639999999999688e+00 3.970450000000000035e+00 7.366690000000000182e+00 3.809750000000000192e+00 7.281719999999999970e+00 3.428030000000000133e+00 3.082099999999999840e-01 3.749820000000000153e+00 3.816559999999999953e+00 5.743210000000000370e+00 2.021650000000000169e+00 7.291080000000000005e+00 5.629500000000000171e+00 5.518749999999999822e+00 3.605780000000000207e+00 7.331349999999999589e+00 1.773899999999999921e-01 7.136149999999999771e+00 5.579209999999999781e+00 7.321690000000000254e+00 5.435399999999999565e+00 1.815890000000000004e+00 5.226320000000000299e+00 1.358800000000000008e-01
5.648220000000000240e+00 2.460700000000000109e-01 2.352079999999999949e+00 3.882989999999999942e+00 3.913120000000000154e+00 7.358460000000000001e+00 2.074120000000000186e+00 7.465980000000000061e+00 5.732359999999999900e+00 1.922800000000000065e+00 1.819059999999999899e+00 4.104260000000000019e+00 2.170479999999999965e+00 2.649900000000000033e-01 2.009110000000000174e+00 1.933459999999999956e+00 5.788739999999999775e+00 3.965399999999999814e+00 4.251000000000000334e+00 7.612790000000000390e+00 7.355749999999999567e+00 5.372860000000000191e+00 1.795500000000000096e+00 3.547180000000000000e+00 5.608830000000000204e+00 5.459620000000000140e+00 7.503999999999999559e-02 2.107639999999999958e+00 4.209439999999999849e+00 2.005889999999999951e+00 7.321710000000000385e+00 1.787439999999999918e+00 1.793409999999999949e+00 1.793830000000000036e+00 3.768440000000000012e+00 5.692969999999999864e+00 5.602070000000000327e+00 3.798480000000000079e+00 1.726310000000000011e+00 3.827350000000000030e+00 5.831879999999999953e+00 1.788799999999999946e+00 2.205929999999999946e+00 2.184000000000000163e+00 7.372550000000000381e+00 3.968850000000000211e+00 1.828519999999999923e+00 5.424280000000000435e+00 3.909600000000000186e+00 5.408610000000000362e+00 5.447239999999999860e+00 3.542910000000000004e+00 3.929159999999999986e+00 3.734599999999999920e+00 5.787910000000000110e+00 3.723399999999999821e+00 5.652879999999999683e+00 1.130700000000000038e-01 5.747499999999999609e+00 2.013100000000000112e+00 4.191799999999999971e-01 9.990999999999999881e-02 3.902930000000000010e+00 3.605679999999999996e+00 2.038429999999999964e+00 2.073409999999999975e+00 7.526720000000000077e+00 5.449749999999999872e+00 5.811729999999999841e+00 7.518390000000000128e+00 1.838729999999999976e+00 5.705569999999999808e+00 7.398850000000000371e+00 3.970530000000000115e+00 2.413099999999999967e-01 3.785969999999999835e+00 1.383900000000000130e-01 3.854550000000000143e+00 7.369699999999999918e+00 3.549440000000000150e+00 3.744209999999999816e+00 5.455689999999999706e+00 2.029020000000000046e+00 8.415999999999999870e-02 5.544439999999999813e+00 5.536760000000000126e+00 3.760850000000000026e+00 7.302730000000000388e+00 3.894000000000000239e-02 5.000999999999999890e-02 5.800060000000000215e+00 7.375969999999999693e+00 5.252500000000000391e+00 2.064049999999999940e+00 5.780850000000000044e+00 7.479210000000000136e+00
2.044369999999999798e+00 7.433650000000000091e+00 1.783050000000000024e+00 5.571710000000000385e+00 7.229529999999999568e+00 1.915089999999999959e+00 7.169249999999999901e+00 1.842130000000000045e+00 1.952029999999999932e+00 1.863969999999999905e+00 1.903750000000000053e+00 9.551999999999999380e-02 8.307000000000000495e-02 3.504760000000000097e+00 3.600800000000000001e+00 3.711059999999999803e+00 1.943929999999999936e+00 1.836249999999999938e+00 6.996850000000000236e+00 7.417349999999999888e+00 3.808040000000000092e+00 2.041640000000000121e+00 1.831949999999999967e+00 3.657560000000000144e+00 5.202539999999999942e+00 3.722490000000000077e+00 5.302089999999999748e+00 5.128589999999999982e+00 5.569749999999999979e+00 7.341269999999999740e+00 5.506249999999999645e+00 3.579180000000000028e+00 2.135720000000000063e+00 5.376490000000000435e+00 1.893420000000000103e+00 3.620509999999999895e+00 1.322899999999999909e-01 3.600179999999999936e+00 3.279900000000000038e-01 5.154490000000000016e+00 7.306689999999999685e+00 5.430839999999999890e+00 3.524270000000000014e+00 4.095989999999999576e+00 3.872380000000000155e+00 6.994220000000000326e+00 5.593950000000000422e+00 2.110100000000000087e+00 6.953769999999999563e+00 2.052049999999999930e+00 5.731749999999999901e+00 1.936029999999999918e+00 3.556239999999999846e+00 1.821090000000000098e+00 3.820500000000000007e+00 3.764940000000000175e+00 7.109720000000000262e+00 7.145979999999999777e+00 5.881140000000000256e+00 5.882900000000000240e+00 3.530699999999999950e+00 7.443100000000000271e+00 3.506369999999999987e+00 3.262000000000000011e+00 5.973259999999999792e+00 5.570809999999999818e+00 3.464020000000000099e+00 1.810820000000000096e+00 5.478589999999999627e+00 1.686790000000000012e+00 5.335300000000000153e+00 7.326130000000000031e+00 5.245239999999999903e+00 5.797589999999999577e+00 4.118940000000000268e+00 1.430879999999999930e+00 5.520500000000000185e+00 3.478120000000000100e+00 3.936539999999999928e+00 5.546140000000000292e+00 1.672739999999999894e+00 1.409600000000000020e-01 1.929899999999999949e-01 1.940600000000000103e-01 3.652359999999999829e+00 7.385349999999999859e+00 1.771800000000000042e-01 1.989729999999999999e+00 1.194700000000000067e-01 5.568539999999999601e+00 1.710460000000000091e+00 3.792359999999999953e+00 5.477520000000000167e+00 5.427310000000000301e+00 1.487789999999999946e+00 7.312689999999999912e+00
1.481430000000000025e+00 6.984079999999999622e+00 1.742050000000000098e+00 5.664740000000000109e+00 7.269499999999999851e+00 1.847730000000000095e+00 7.217259999999999565e+00 1.591830000000000078e+00 1.777079999999999993e+00 1.756229999999999958e+00 1.984960000000000058e+00 6.389999999999999847e-02 7.066690000000000360e+00 3.631409999999999805e+00 3.741379999999999928e+00 3.521760000000000002e+00 1.771919999999999940e+00 1.866800000000000015e+00 -1.077999999999999965e-02 7.087340000000000195e+00 3.703870000000000218e+00 1.468650000000000011e+00 1.698679999999999968e+00 3.528599999999999959e+00 5.235800000000000232e+00 3.713709999999999845e+00 5.612860000000000404e+00 5.071649999999999991e+00 5.502530000000000143e+00 7.216310000000000002e+00 5.303619999999999557e+00 3.604519999999999946e+00 1.775430000000000064e+00 5.096029999999999838e+00 2.153789999999999871e+00 3.869860000000000078e+00 7.205820000000000114e+00 3.657039999999999846e+00 4.732000000000000095e-02 5.478060000000000151e+00 4.871000000000000330e-02 5.373920000000000030e+00 3.490709999999999980e+00 3.321730000000000071e+00 3.742719999999999825e+00 6.856869999999999798e+00 5.275859999999999772e+00 1.625240000000000018e+00 7.098119999999999763e+00 1.712129999999999930e+00 5.455829999999999735e+00 1.674860000000000015e+00 3.636219999999999786e+00 1.812880000000000047e+00 3.333070000000000199e+00 3.773639999999999883e+00 7.186139999999999972e+00 -2.344999999999999862e-01 5.449720000000000120e+00 5.619019999999999904e+00 3.451940000000000008e+00 3.083199999999999830e-01 3.664989999999999970e+00 3.450089999999999879e+00 5.732099999999999973e+00 5.259509999999999685e+00 3.499899999999999789e+00 1.868349999999999955e+00 5.608139999999999681e+00 1.764920000000000044e+00 5.472089999999999677e+00 7.135880000000000223e+00 5.284029999999999561e+00 5.353950000000000209e+00 3.690119999999999845e+00 1.855189999999999895e+00 5.462040000000000006e+00 3.385850000000000026e+00 3.565329999999999888e+00 5.547649999999999970e+00 1.821269999999999945e+00 6.989690000000000403e+00 1.022900000000000059e-01 7.040689999999999671e+00 4.089800000000000324e+00 1.132599999999999996e-01 7.821999999999999786e-02 1.574100000000000055e+00 7.058620000000000339e+00 5.551980000000000359e+00 1.759309999999999929e+00 3.586749999999999883e+00 5.429000000000000270e+00 5.523629999999999818e+00 1.955600000000000005e+00 1.524699999999999944e-01
