-2.669779999999999931e-01 -1.079018000000000033e+00 1.887739999999999974e-01 2.628659999999999886e-01 4.986999999999999766e-02 -5.883800000000000141e-02 7.794400000000000217e-01 4.400020000000000042e-01 -5.706210000000000448e-01 -1.139572999999999947e+00 1.452630000000000032e-01 -7.789260000000000073e-01 -1.601469000000000031e+00 1.537999999999999923e-01 8.648919999999999941e-01 2.805920000000000081e-01 8.012749999999999595e-01 -1.656886000000000081e+00 2.166609999999999925e-01 1.282920999999999978e+00 -7.346059999999999812e-01 -4.270769999999999844e-01 1.619833999999999996e+00 8.330929999999999724e-01 4.037136000000000280e+00 -4.421181999999999945e+00 3.784060000000000201e-01 7.139400000000000190e-01 -6.832989999999999897e-01 2.842770000000000019e-01 7.096999999999999975e-01 8.475629999999999553e-01 9.574880000000000058e-01 2.688450000000000006e-01 -3.793159999999999865e-01 2.025199999999999917e-02 9.264200000000000212e-01 -1.853436000000000083e+00 -2.839979999999999727e-01 -1.960510000000000030e-01 -5.281299999999999883e-02 -2.596950000000000092e-01 1.144980000000000026e-01 -7.640259999999999829e-01 -1.172746000000000066e+00 -3.455920000000000103e-01 4.798160000000000203e-01 -8.928570000000000118e-01 -2.829010000000000136e-01 -1.418568000000000051e+00 9.760349999999999859e-01 -6.950669999999999904e-01 -5.392479999999999496e-01 1.163419999999999899e+00 1.144111000000000100e+00 1.179602000000000039e+00 7.543210000000000193e-01 -3.922550000000000203e-01 2.901500000000000190e-01 -4.190510000000000068e-01 1.426330000000000098e-01 -1.323700000000000050e-02 -1.196307999999999927e+00 6.293119999999999825e-01 1.654965999999999937e+00 -4.810889999999999889e-01 -8.383699999999999486e-02 -2.232280000000000098e-01 4.523269999999999791e-01 4.706359999999999988e-01 -5.036490000000000133e-01 -6.670169999999999710e-01 1.588779999999999915e-01 3.348329999999999917e-01 2.235149999999999915e-01 1.082721999999999962e+00 6.453510000000000080e-01 7.860239999999999450e-01 1.074300999999999950e+00 1.839739999999999986e-01 7.302180000000000337e-01 -5.993559999999999999e-01 -9.789130000000000331e-01 3.195419999999999927e-01 -6.148301000000000016e+00 3.625055999999999834e+00 -2.058069999999999899e-01 8.202610000000000179e-01 -1.018356000000000039e+00 3.961850000000000094e-01 3.891140000000000154e-01 2.390919999999999990e-01 -2.063490000000000046e-01 -2.043607999999999869e+00 -4.507800000000000001e-02 2.560279999999999778e-01
-6.083129999999999926e-01 2.872699999999999906e-02 -7.945010000000000128e-01 -1.127569999999999961e-01 -7.768509999999999582e-01 -5.078829999999999734e-01 2.055039999999999922e-01 -7.481100000000000527e-01 -1.983689999999999898e-01 -3.956627999999999812e+00 -3.690088999999999952e+00 -1.566579999999999917e-01 -8.680139999999999523e-01 -2.572519999999999807e-01 1.075472999999999901e+00 -1.127439999999999970e-01 -3.127489999999999992e-01 -3.405639999999999779e-01 -5.221869999999999568e-01 -6.218160000000000354e-01 3.499000000000000027e-02 -1.276019999999999932e-01 1.353799999999999969e-02 -3.871919999999999806e-01 8.108659999999999757e-01 8.586699999999999888e-02 -3.127019999999999800e-01 -4.166770000000000196e-01 2.735929999999999751e-01 1.849820000000000075e-01 3.131863000000000063e+00 4.078738000000000419e+00 4.964959999999999929e-01 -4.381840000000000179e-01 -1.155459999999999959e-01 6.694189999999999863e-01 -4.437749999999999750e-01 -7.038020000000000387e-01 1.571849999999999914e-01 -3.918179999999999996e-01 -7.759930000000000438e-01 1.550075000000000092e+00 3.745310000000000028e-01 7.397620000000000307e-01 -3.358729999999999771e-01 -5.976150000000000073e-01 4.108959999999999835e-01 1.098977000000000093e+00 -1.685139999999999971e-01 -5.221230000000000038e-01 6.053650000000000420e-01 2.456879999999999897e-01 2.881819999999999937e-01 -8.958190000000000319e-01 4.688410000000000077e-01 1.286067000000000071e+00 9.405700000000000172e-01 -8.889029999999999987e-01 1.129135999999999918e+00 -1.078790000000000027e-01 5.017110000000000181e-01 -2.151958000000000037e+00 -1.488059999999999938e+00 7.621830000000000549e-01 -7.940469999999999473e-01 4.554920000000000080e-01 1.072489999999999971e-01 -3.416500000000000092e-02 -2.617090000000000249e-01 -5.535689999999999777e-01 2.446362999999999843e+00 2.178176999999999808e+00 2.853319999999999745e-01 2.048729999999999996e-01 -9.456539999999999946e-01 -9.510060000000000180e-01 6.708110000000000461e-01 5.601789999999999825e-01 2.036918000000000006e+00 -1.806143000000000054e+00 -9.261690000000000200e-01 7.036529999999999729e-01 -3.390009999999999968e-01 -8.866920000000000357e-01 2.744119999999999893e-01 4.248509999999999787e-01 -1.220809999999999951e-01 8.040850000000000497e-01 -2.227639999999999898e-01 -1.038837999999999928e+00 7.150790000000000202e-01 1.098541999999999907e+00 -3.716760000000000064e-01 -2.696089999999999876e-01 6.924630000000000507e-01 7.093900000000000206e-02
-2.645120000000000249e-01 8.243890000000000384e-01 -1.054090000000000027e-01 4.961880000000000179e-01 -2.078076999999999952e+00 5.911279999999999868e-01 -6.524410000000000487e-01 -4.195740000000000025e-01 3.249870000000000259e-01 6.195399999999999796e-01 -3.133099999999999774e-01 1.808518999999999988e+00 -8.748399999999999510e-01 5.260500000000000176e-01 -2.071750000000000203e+00 2.396230000000000027e-01 8.561790000000000234e-01 1.318299000000000110e+00 -1.827789000000000108e+00 3.739977999999999803e+00 2.638249999999999762e-01 7.564549999999999885e-01 -1.755600000000000049e+00 -1.360537000000000107e+00 -7.463030000000000497e-01 9.177899999999999947e-01 1.724690000000000112e-01 6.630289999999999795e-01 6.852230000000000265e-01 3.354699999999999904e-01 4.890430000000000055e-01 -7.359240000000000226e-01 -1.041990999999999890e+00 2.104372999999999827e+00 1.593900000000000039e-01 1.476560000000000095e-01 -7.776589999999999892e-01 1.563792000000000071e+00 -8.533399999999999319e-02 3.107940000000000147e-01 9.899350000000000094e-01 9.893490000000000339e-01 -2.862049999999999872e-01 -7.921139999999999848e-01 -1.616009999999999946e-01 -3.713839999999999919e-01 4.675329999999999764e-01 1.093244000000000105e+00 -9.086340000000000527e-01 -2.762180000000000191e-01 1.006899999999999983e-02 4.577785999999999689e+00 -3.001930000000000209e+00 -1.576480000000000103e-01 2.914329999999999976e-01 -2.598159999999999914e-01 -1.617587000000000108e+00 -5.988430000000000142e-01 7.339609999999999745e-01 -7.372859999999999969e-01 2.712699999999999834e-02 5.721880000000000299e-01 3.074520000000000031e-01 -2.367154000000000202e+00 -1.484539999999999971e+00 1.006661000000000028e+00 3.748000000000000029e-03 -5.644899999999999918e-02 -4.773709999999999898e-01 -3.620299999999999907e-02 -3.679560000000000053e-01 -5.834970000000000434e-01 -1.101830000000000087e+00 7.108539999999999859e-01 -1.109730000000000022e-01 -4.295500000000000013e-02 -1.292272000000000087e+00 8.497559999999999558e-01 -3.820400000000000185e-02 6.539920000000000178e-01 3.548470000000000235e-01 -4.127230000000000065e-01 8.227579999999999893e-01 -1.115752999999999995e+00 -9.533500000000000307e-02 4.117190000000000016e-01 3.665970000000000062e-01 -7.931000000000000549e-03 -1.261849999999999916e-01 5.435200000000000031e-01 6.558730000000000393e-01 -1.668034999999999934e+00 -6.522609999999999797e-01 1.759340000000000070e-01 -7.731000000000000025e-03 -2.048510000000000053e-01
-9.048439999999999817e-01 -3.264059999999999739e-01 3.634839999999999738e-01 -3.541217000000000059e+00 -4.031382999999999939e+00 3.389269999999999783e-01 -3.828600000000000059e-02 -4.521060000000000079e-01 9.362899999999999556e-01 2.248310000000000031e-01 7.320969999999999978e-01 -1.938298000000000076e+00 1.885390000000000121e-01 -2.315820000000000101e-01 8.026219999999999466e-01 6.924810000000000132e-01 -4.960419999999999829e-01 -1.263690000000000091e-01 2.781509999999999816e-01 -1.409181000000000017e+00 -9.686759999999999815e-01 -9.362499999999999989e-02 1.687980000000000036e-01 3.837929999999999953e-01 3.923191000000000095e+00 4.543479999999999741e+00 5.140240000000000364e-01 -3.711090000000000222e-01 -1.189435999999999938e+00 7.770470000000000432e-01 -7.496319999999999650e-01 5.334360000000000213e-01 8.725199999999999623e-02 -5.381000000000000366e-03 1.598870000000000013e+00 -5.408190000000000497e-01 6.511310000000000153e-01 -8.857110000000000261e-01 9.461500000000000465e-02 3.694060000000000121e-01 -6.175900000000000140e-02 1.346703999999999901e+00 -7.555939999999999879e-01 1.291080000000000005e-01 -3.608390000000000208e-01 -1.026562999999999892e+00 1.006988999999999912e+00 -9.230890000000000484e-01 -8.760419999999999874e-01 -1.033593999999999902e+00 -1.032766999999999991e+00 -4.091210000000000124e-01 -3.748710000000000098e-01 1.568192999999999948e+00 6.527239999999999709e-01 -1.028629999999999933e+00 -2.870289999999999786e+00 1.473103999999999969e+00 1.274099000000000093e+00 -3.418729999999999825e-01 2.963640000000000163e-01 9.492519999999999847e-01 -1.061690000000000023e+00 5.733310000000000350e-01 1.276737999999999928e+00 1.863005999999999940e+00 5.205629999999999979e-01 -6.978199999999999681e-02 -9.471999999999999517e-03 -7.209100000000000508e-01 -1.085870000000000030e-01 2.705499999999999919e-02 1.365104000000000095e+00 -1.359593999999999969e+00 -1.771400000000000058e-02 1.114919999999999939e-01 3.093819999999999903e-01 6.765290000000000470e-01 -3.552219999999999822e-01 -2.722160000000000135e-01 -3.691500000000000337e-02 -1.966360000000000052e-01 -1.555960000000000121e-01 9.214560000000000528e-01 -8.995100000000000318e-01 3.526000000000000054e-03 8.145480000000000498e-01 1.756919999999999871e-01 -5.442949999999999733e-01 2.584049999999999958e-01 4.297969999999999846e-01 1.703959999999999919e-01 3.617739999999999845e-01 -9.822079999999999700e-01 1.334597999999999951e+00 -1.906913000000000080e+00
5.267960000000000420e-01 -4.764345999999999748e+00 -3.953208000000000055e+00 3.925499999999999823e-02 1.247179999999999955e-01 6.211740000000000039e-01 3.056530000000000080e-01 1.429970000000000130e-01 7.944649999999999768e-01 6.179219999999999713e-01 1.251174000000000008e+00 -1.151321000000000039e+00 -1.317784000000000066e+00 -8.495409999999999906e-01 -7.577359999999999651e-01 3.505530000000000035e-01 -9.123869999999999481e-01 -5.229289999999999772e-01 -4.540270000000000139e-01 -5.791899999999999826e-02 2.121570000000000122e-01 1.342286000000000090e+00 5.198662999999999812e+00 3.219859000000000027e+00 -5.336959999999999482e-01 1.140193999999999930e+00 -7.244859999999999634e-01 -1.250051000000000023e+00 -9.102609999999999868e-01 -1.018804999999999961e+00 9.948299999999999921e-01 7.358479999999999466e-01 1.107940000000000036e-01 6.627650000000000485e-01 2.294249999999999901e-01 -4.182939999999999992e-01 -7.176940000000000541e-01 -2.325069999999999915e-01 1.573981000000000074e+00 3.854339999999999988e-01 3.037300000000000069e-02 1.421050000000000091e-01 -2.990399999999999725e-01 -1.092255999999999894e+00 8.901540000000000008e-01 -1.134899999999999937e-01 1.069609999999999950e+00 1.733578999999999981e+00 -2.645129999999999981e-01 1.283862000000000059e+00 1.428757999999999972e+00 1.035241000000000078e+00 -1.094859999999999944e+00 2.332710000000000061e-01 -3.049740000000000228e-01 -1.179380000000000012e-01 -4.041700000000000154e-02 -2.572299999999999934e-02 1.834419999999999940e-01 8.972600000000000020e-02 -1.703770999999999924e+00 -3.907200000000000256e-02 -7.663710000000000244e-01 -6.767999999999999711e-03 8.250570000000000404e-01 -1.117971999999999966e+00 -3.551279999999999992e-01 1.324875999999999943e+00 -7.932860000000000467e-01 -6.661519999999999664e-01 1.982540000000000135e-01 5.227070000000000327e-01 1.061792000000000069e+00 -1.409240000000000048e+00 -1.789759999999999962e-01 -1.151812000000000058e+00 -1.621874999999999956e+00 -2.863049999999999762e-01 2.334799999999999931e-01 3.855140000000000233e-01 -3.106849999999999890e-01 1.831260000000000110e-01 -6.738760000000000305e-01 -2.835340000000000082e-01 7.597150000000000292e-01 -4.538110000000000199e-01 -7.808079999999999465e-01 -9.435100000000000431e-02 -2.877879999999999883e-01 -1.023939999999999989e-01 2.679019999999999735e-01 2.464300000000000102e-01 1.294014999999999915e+00 4.922239999999999949e-01 1.472420000000000118e-01 3.407819999999999738e-01
-2.066535000000000011e+00 -3.137900000000000134e-01 2.680000000000000090e-04 -1.316467000000000054e+00 2.072700999999999905e+00 -5.854489999999999972e-01 8.228879999999999528e-01 -7.179649999999999643e-01 -2.487060000000000104e-01 4.496850000000000014e-01 -2.119379999999999875e-01 -7.992249999999999632e-01 -4.696730000000000071e-01 2.027970000000000050e-01 5.622530000000000028e-01 4.732100000000000195e-01 -2.160749999999999893e-01 -5.772209999999999841e-01 1.402053999999999911e+00 7.061399999999999899e-01 3.666470000000000007e-01 -1.167458000000000107e+00 1.563799999999999912e-01 -3.886640000000000095e-01 1.854565000000000019e+00 -2.260620000000000129e-01 6.274549999999999850e-01 2.104172000000000153e+00 7.498920000000000030e-01 -6.974489999999999856e-01 -2.252780000000000060e-01 1.508545999999999943e+00 -1.102254999999999985e+00 7.846899999999999709e-02 -1.007676999999999934e+00 1.336662999999999935e+00 -1.242599999999999927e+00 5.770530000000000381e-01 -8.781900000000000261e-01 3.714250000000000052e-01 4.400928999999999647e+00 3.386868000000000212e+00 -1.012593000000000076e+00 -5.126439999999999886e-01 -1.408725000000000005e+00 1.123280999999999974e+00 -1.465362000000000053e+00 -7.314509999999999623e-01 1.414795000000000025e+00 -2.013459999999999972e-01 -8.600499999999999812e-01 2.349900000000000044e-01 9.936890000000000445e-01 6.125850000000000461e-01 -1.692787000000000042e+00 -1.252960000000000074e+00 1.182423999999999920e+00 6.078459999999999974e-01 -6.241929999999999978e-01 -3.582779999999999854e-01 2.257020000000000137e-01 -1.351499999999999924e-01 6.510150000000000103e-01 7.249349999999999961e-01 -2.609887000000000068e+00 -1.024130000000000040e-01 1.522928999999999977e+00 8.263709999999999667e-01 7.640559999999999574e-01 -8.884999999999999842e-02 6.939009999999999900e-01 8.615570000000000173e-01 7.696960000000000468e-01 -3.666929000000000105e+00 -3.718522999999999801e+00 8.242199999999999527e-01 6.203880000000000505e-01 6.240710000000000424e-01 -1.558918999999999944e+00 -1.065164999999999917e+00 1.521940999999999988e+00 8.869699999999999807e-02 -8.278200000000000003e-01 -2.971809999999999730e-01 -4.067500000000000282e-02 5.292599999999999527e-01 -1.145701000000000080e+00 -2.982765000000000111e+00 5.511019999999999808e-01 1.739330000000000043e-01 -4.324080000000000146e-01 -4.393569999999999975e-01 2.382990000000000108e-01 -7.965510000000000090e-01 9.051709999999999479e-01 9.894450000000000189e-01
1.420089999999999963e-01 1.311449000000000087e+00 -9.519560000000000244e-01 -2.510018000000000082e+00 -1.105526000000000009e+00 6.702219999999999844e-01 1.388873999999999942e+00 2.279727999999999977e+00 2.407980000000000120e-01 5.999499999999999972e-02 -1.096918000000000060e+00 -3.402669999999999861e-01 6.082130000000000036e-01 1.106079999999999980e-01 -2.992679999999999785e-01 6.360000000000000202e-03 2.479139999999999955e-01 -9.634179999999999966e-01 -1.050748000000000015e+00 -4.934930000000000150e-01 -2.894499999999999851e-02 8.381570000000000409e-01 9.104079999999999950e-01 5.782620000000000537e-01 2.019009999999999971e-01 1.792519999999999947e-01 -9.075199999999999934e-02 3.771169999999999800e-01 -3.685789999999999900e-01 -1.935969999999999913e-01 -6.760399999999999743e-01 -1.581510000000000138e-01 6.757499999999999618e-01 4.689578000000000024e+00 -3.660449999999999982e+00 -8.302310000000000523e-01 6.348700000000000454e-01 -4.524230000000000196e-01 -7.083019999999999872e-01 -1.375901000000000041e+00 -2.741779999999999773e-01 -1.155027999999999944e+00 -3.907878999999999881e+00 3.979909999999999837e+00 -1.026475000000000026e+00 1.823404999999999943e+00 8.645140000000000047e-01 1.233856999999999982e+00 7.651289999999999480e-01 1.641372000000000053e+00 -7.196979999999999489e-01 2.577899999999999983e-02 1.489119999999999888e-01 2.324189999999999867e-01 7.331450000000000466e-01 -7.012720000000000065e-01 8.770339999999999803e-01 -3.989600000000000091e-02 -6.004030000000000200e-01 -6.344049999999999967e-01 3.593870000000000120e-01 -1.072761999999999993e+00 8.359099999999999864e-02 4.048470000000000124e-01 -1.126128000000000018e+00 4.065329999999999777e-01 -4.119010000000000171e-01 -9.197210000000000107e-01 7.545389999999999597e-01 -6.742519999999999625e-01 -3.325719999999999787e-01 1.086974000000000107e+00 4.086499999999999855e-02 3.114979999999999971e-01 -2.768530000000000157e-01 -7.159990000000000521e-01 -9.135349999999999859e-01 1.721321000000000101e+00 5.932439999999999936e-01 -4.871700000000000336e-02 -1.935270000000000046e-01 1.239103999999999983e+00 -8.487360000000000460e-01 1.985870000000000024e+00 -1.818694999999999951e+00 -2.061899999999999844e-02 -1.436590000000000089e-01 -9.528699999999999670e-02 2.042599000000000053e+00 -5.351470000000000393e-01 -1.171400999999999915e+00 4.012680000000000136e-01 -5.385689999999999644e-01 -4.839609999999999745e-01 -2.352509999999999879e-01 -9.170719999999999983e-01
