4.478589569999999576e+00 0.000000000000000000e+00 0.000000000000000000e+00 6.328234800000000215e-02 2.733996744000000145e+00 0.000000000000000000e+00 2.123309389999999963e-01 8.031473499999999821e-02 1.740568594399999824e+01
4.178935723000000380e+00 0.000000000000000000e+00 0.000000000000000000e+00 -7.610971499999999446e-02 2.656467488000000099e+00 0.000000000000000000e+00 5.892847340000000322e-01 -3.095456440000000087e-01 2.219998496699999890e+01
4.103120659000000003e+00 0.000000000000000000e+00 0.000000000000000000e+00 -1.559047099999999984e-02 2.478147561000000110e+00 0.000000000000000000e+00 2.871096040000000182e-01 4.001883399999999757e-01 1.976204560300000068e+01
4.074234828999999891e+00 0.000000000000000000e+00 0.000000000000000000e+00 -3.758501999999999676e-02 2.514634791999999841e+00 0.000000000000000000e+00 -1.827772729999999901e-01 -3.800567240000000124e-01 2.171638724299999978e+01
4.049788530999999914e+00 0.000000000000000000e+00 0.000000000000000000e+00 -6.873098099999999655e-02 2.398845816000000131e+00 0.000000000000000000e+00 2.851339660000000165e-01 -1.508302350000000069e-01 2.039511825299999970e+01
4.478589569999999576e+00 0.000000000000000000e+00 0.000000000000000000e+00 6.328234800000000215e-02 2.733996744000000145e+00 0.000000000000000000e+00 2.123309389999999963e-01 8.031473499999999821e-02 1.740568594399999824e+01
4.074234828999999891e+00 0.000000000000000000e+00 0.000000000000000000e+00 -3.758501999999999676e-02 2.514634791999999841e+00 0.000000000000000000e+00 -1.827772729999999901e-01 -3.800567240000000124e-01 2.171638724299999978e+01
4.201719693000000255e+00 0.000000000000000000e+00 0.000000000000000000e+00 -7.352443300000000015e-02 2.543057157999999873e+00 0.000000000000000000e+00 -3.922528789999999987e-01 -2.609000490000000227e-01 1.954460239000000144e+01
4.230797609999999764e+00 0.000000000000000000e+00 0.000000000000000000e+00 -3.604275700000000165e-02 2.538890798999999809e+00 0.000000000000000000e+00 -2.152969279999999985e-01 -2.816865649999999999e-01 2.137708774000000034e+01
4.194425122000000172e+00 0.000000000000000000e+00 0.000000000000000000e+00 -1.841558999999999991e-03 2.506941986000000178e+00 0.000000000000000000e+00 5.698675469999999743e-01 3.411504149999999846e-01 2.172228941199999852e+01
4.049788530999999914e+00 0.000000000000000000e+00 0.000000000000000000e+00 -6.873098099999999655e-02 2.398845816000000131e+00 0.000000000000000000e+00 2.851339660000000165e-01 -1.508302350000000069e-01 2.039511825299999970e+01
4.156773549000000401e+00 0.000000000000000000e+00 0.000000000000000000e+00 -6.261539600000000372e-02 2.596653197000000191e+00 0.000000000000000000e+00 -6.327800599999999775e-01 -3.598780819999999880e-01 2.076611702299999962e+01
4.103120659000000003e+00 0.000000000000000000e+00 0.000000000000000000e+00 -1.559047099999999984e-02 2.478147561000000110e+00 0.000000000000000000e+00 2.871096040000000182e-01 4.001883399999999757e-01 1.976204560300000068e+01
4.074234828999999891e+00 0.000000000000000000e+00 0.000000000000000000e+00 -3.758501999999999676e-02 2.514634791999999841e+00 0.000000000000000000e+00 -1.827772729999999901e-01 -3.800567240000000124e-01 2.171638724299999978e+01
4.201719693000000255e+00 0.000000000000000000e+00 0.000000000000000000e+00 -7.352443300000000015e-02 2.543057157999999873e+00 0.000000000000000000e+00 -3.922528789999999987e-01 -2.609000490000000227e-01 1.954460239000000144e+01
4.272863659000000425e+00 0.000000000000000000e+00 0.000000000000000000e+00 4.938823000000000171e-03 2.638483442000000068e+00 0.000000000000000000e+00 2.600106309999999921e-01 -5.491158529999999871e-01 1.997747352900000095e+01
4.125684213999999628e+00 0.000000000000000000e+00 0.000000000000000000e+00 3.712743599999999977e-02 2.503866238000000077e+00 0.000000000000000000e+00 -5.251361730000000394e-01 5.557458880000000212e-01 2.091652334600000174e+01
4.427580372999999625e+00 0.000000000000000000e+00 0.000000000000000000e+00 -6.330344799999999827e-02 2.785672708999999969e+00 0.000000000000000000e+00 -6.341125119999999615e-01 -3.692265290000000255e-01 2.218504316799999998e+01
4.403988147999999825e+00 0.000000000000000000e+00 0.000000000000000000e+00 3.975976800000000089e-02 2.627985956999999928e+00 0.000000000000000000e+00 -1.287585770000000129e-01 -4.231146000000000074e-01 1.982934021100000166e+01
4.272863659000000425e+00 0.000000000000000000e+00 0.000000000000000000e+00 4.938823000000000171e-03 2.638483442000000068e+00 0.000000000000000000e+00 2.600106309999999921e-01 -5.491158529999999871e-01 1.997747352900000095e+01
4.346283138999999629e+00 0.000000000000000000e+00 0.000000000000000000e+00 -1.123233099999999991e-02 2.603303700000000109e+00 0.000000000000000000e+00 5.076078579999999674e-01 -3.057166660000000258e-01 1.797370499799999877e+01
4.346283138999999629e+00 0.000000000000000000e+00 0.000000000000000000e+00 -1.123233099999999991e-02 2.603303700000000109e+00 0.000000000000000000e+00 5.076078579999999674e-01 -3.057166660000000258e-01 1.797370499799999877e+01
4.178935723000000380e+00 0.000000000000000000e+00 0.000000000000000000e+00 -7.610971499999999446e-02 2.656467488000000099e+00 0.000000000000000000e+00 5.892847340000000322e-01 -3.095456440000000087e-01 2.219998496699999890e+01
4.049788530999999914e+00 0.000000000000000000e+00 0.000000000000000000e+00 -6.873098099999999655e-02 2.398845816000000131e+00 0.000000000000000000e+00 2.851339660000000165e-01 -1.508302350000000069e-01 2.039511825299999970e+01
4.194425122000000172e+00 0.000000000000000000e+00 0.000000000000000000e+00 -1.841558999999999991e-03 2.506941986000000178e+00 0.000000000000000000e+00 5.698675469999999743e-01 3.411504149999999846e-01 2.172228941199999852e+01
4.388292365999999944e+00 0.000000000000000000e+00 0.000000000000000000e+00 4.490254899999999993e-02 2.574841756000000093e+00 0.000000000000000000e+00 -9.559360499999999816e-02 4.210616349999999897e-01 1.728646614999999898e+01
4.388292365999999944e+00 0.000000000000000000e+00 0.000000000000000000e+00 4.490254899999999993e-02 2.574841756000000093e+00 0.000000000000000000e+00 -9.559360499999999816e-02 4.210616349999999897e-01 1.728646614999999898e+01
4.232697429999999983e+00 0.000000000000000000e+00 0.000000000000000000e+00 -7.284480899999999648e-02 2.519985929000000180e+00 0.000000000000000000e+00 1.901731369999999921e-01 1.329571900000000029e-01 1.858445437099999964e+01
4.201719693000000255e+00 0.000000000000000000e+00 0.000000000000000000e+00 -7.352443300000000015e-02 2.543057157999999873e+00 0.000000000000000000e+00 -3.922528789999999987e-01 -2.609000490000000227e-01 1.954460239000000144e+01
