-3.430165072999999865e+01
-3.606612432000000013e+01
-3.735366995999999773e+01
-3.799247039000000115e+01
-3.683439292999999992e+01
-3.889367734000000354e+01
-3.465459286000000105e+01
-3.473032089000000155e+01
-3.626383090000000209e+01
-3.554409655999999984e+01
-3.630812278999999876e+01
-3.554844362000000046e+01
