3.712479999999999780e+00 1.301649999999999974e+00 4.123240000000000016e+00 2.327200000000000102e-01 2.324129999999999807e+00 6.122560000000000002e+00 3.089080000000000048e+00 1.064599999999999991e-01 8.172950000000000159e+00 7.635300000000000420e-01 1.145680000000000032e+00 2.114819999999999922e+00 9.662600000000000078e-01 1.314009999999999900e+00 8.261720000000000397e+00 1.690800000000000081e+00 2.306410000000000071e+00 1.043890000000000029e+01 2.289820000000000189e+00 1.054540000000000033e+00 6.186289999999999623e+00 3.798529999999999962e+00 1.163720000000000088e+00 1.029059999999999953e+01 4.522910000000000430e+00 8.074000000000000621e-02 1.418050000000000033e+01 2.870760000000000201e+00 1.013899999999999940e-01 2.119390000000000107e+00 2.033710000000000129e+00 1.297039999999999971e+00 5.167999999999999677e-02 1.598649999999999904e+00 2.301149999999999807e+00 4.194869999999999877e+00
3.611699999999999910e+00 1.316599999999999993e+00 4.208619999999999806e+00 4.306309999999999860e+00 1.393300000000000094e-01 6.262749999999999595e+00 3.152330000000000076e+00 2.330690000000000150e+00 8.315379999999999328e+00 8.017800000000000482e-01 1.174770000000000092e+00 1.955910000000000037e+00 1.055469999999999908e+00 1.131490000000000107e+00 8.281499999999999417e+00 1.670430000000000081e+00 2.367239999999999789e+00 1.047690000000000055e+01 2.234999999999999876e+00 1.275919999999999943e+00 6.211839999999999584e+00 3.772250000000000103e+00 1.063760000000000039e+00 1.036860000000000070e+01 4.284600000000000075e-01 4.746999999999999831e-02 1.418929999999999936e+01 2.917009999999999881e+00 2.336349999999999927e+00 2.092740000000000045e+00 2.544130000000000003e+00 1.233700000000000019e+00 1.418329999999999913e+01 1.496450000000000058e+00 5.285000000000000114e-02 4.121389999999999887e+00
3.642609999999999904e+00 1.291209999999999969e+00 4.193880000000000052e+00 4.315430000000000099e+00 1.119700000000000001e-01 6.257900000000000240e+00 3.135639999999999983e+00 2.366839999999999833e+00 8.305790000000000006e+00 7.858800000000000230e-01 1.196229999999999905e+00 2.004640000000000200e+00 1.034869999999999957e+00 1.146560000000000024e+00 8.222530000000000783e+00 1.729710000000000081e+00 2.396139999999999937e+00 1.038889999999999958e+01 2.251349999999999962e+00 1.242629999999999901e+00 6.216490000000000293e+00 3.741960000000000175e+00 1.096899999999999986e+00 1.028999999999999915e+01 4.603449999999999598e+00 3.015999999999999931e-02 1.427860000000000085e+01 2.915119999999999933e+00 2.348939999999999806e+00 2.113360000000000127e+00 2.546300000000000008e+00 1.214599999999999902e+00 1.427267999999999937e+01 1.476639999999999953e+00 2.798000000000000140e-02 4.123540000000000205e+00
3.649309999999999832e+00 1.174600000000000088e+00 4.116570000000000285e+00 2.321300000000000030e-01 2.418200000000000127e+00 6.162609999999999921e+00 3.014580000000000037e+00 -8.089999999999999969e-03 8.256009999999999849e+00 7.743499999999999828e-01 1.224280000000000035e+00 2.096420000000000172e+00 9.418100000000000360e-01 1.215629999999999988e+00 8.227499999999999147e+00 1.674220000000000041e+00 1.638999999999999832e-02 1.034570000000000078e+01 2.309730000000000061e+00 1.214469999999999938e+00 6.220220000000000304e+00 3.793250000000000011e+00 1.192790000000000017e+00 1.034249999999999936e+01 4.632699999999999818e+00 2.387239999999999807e+00 1.436239999999999917e+01 2.875290000000000123e+00 2.390670000000000073e+00 2.033490000000000020e+00 2.531439999999999912e+00 1.218169999999999975e+00 1.435068000000000055e+01 1.562489999999999934e+00 2.582999999999999879e-02 4.154130000000000322e+00
3.740829999999999878e+00 1.237319999999999975e+00 4.135040000000000049e+00 2.528599999999999737e-01 2.305890000000000217e+00 6.183539999999999814e+00 3.117579999999999796e+00 9.919999999999999651e-02 8.241609999999999658e+00 7.728099999999999969e-01 1.164719999999999978e+00 2.052560000000000162e+00 9.601199999999999735e-01 1.340600000000000014e+00 8.291999999999999815e+00 1.618479999999999919e+00 2.313169999999999948e+00 1.053049999999999997e+01 2.274989999999999846e+00 1.040850000000000053e+00 6.165499999999999758e+00 3.847789999999999822e+00 1.125459999999999905e+00 1.035180000000000078e+01 4.478110000000000035e+00 1.040999999999999981e-01 1.409580000000000055e+01 2.869990000000000041e+00 8.873999999999999944e-02 2.042409999999999837e+00 2.042429999999999968e+00 1.346000000000000085e+00 3.129999999999999970e-03 1.593280000000000030e+00 2.330859999999999932e+00 4.163789999999999658e+00
9.433300000000000018e-01 1.125299999999999967e+00 8.232829999999999870e+00 2.936339999999999950e+00 2.563999999999999960e-02 1.683650000000000091e+00 2.290550000000000086e+00 1.241740000000000066e+00 6.112519999999999953e+00 7.557899999999999618e-01 1.239349999999999952e+00 1.714329999999999909e+00 4.484980000000000189e+00 1.359999999999999924e-02 6.070949999999999847e+00 3.581099999999999839e-01 2.122500000000000053e+00 1.227570000000000050e+01 2.491859999999999964e+00 9.441500000000000448e-01 1.222840000000000060e+01 1.774410000000000043e+00 2.058339999999999836e+00 1.021630000000000038e+01 3.965440000000000076e+00 8.488499999999999934e-01 1.016419999999999924e+01 1.541479999999999961e+00 -5.358999999999999875e-02 3.832390000000000185e+00 3.128569999999999851e+00 -6.439000000000000279e-02 8.282460000000000377e+00 3.690100000000000158e+00 1.181769999999999987e+00 3.863100000000000200e+00
3.628039999999999932e+00 1.212429999999999897e+00 4.121459999999999901e+00 1.846599999999999908e-01 -9.830000000000000196e-03 6.186040000000000205e+00 3.032399999999999984e+00 -1.391000000000000049e-02 8.244339999999999336e+00 7.782900000000000373e-01 1.217160000000000020e+00 2.069030000000000147e+00 9.583000000000000407e-01 1.205540000000000056e+00 8.243529999999999802e+00 1.731389999999999985e+00 2.417809999999999793e+00 1.030380000000000074e+01 2.290739999999999998e+00 1.214250000000000052e+00 6.181580000000000297e+00 3.808429999999999982e+00 1.201340000000000074e+00 1.030519999999999925e+01 4.224999999999999867e-01 -2.627000000000000168e-02 1.441060000000000052e+01 2.883270000000000000e+00 2.431979999999999809e+00 2.060989999999999878e+00 2.113750000000000018e+00 1.215969999999999995e+00 6.779999999999999569e-03 1.549830000000000041e+00 2.430449999999999999e+00 4.124139999999999695e+00
3.628039999999999932e+00 1.212429999999999897e+00 4.121459999999999901e+00 1.846599999999999908e-01 -9.830000000000000196e-03 6.186040000000000205e+00 3.032399999999999984e+00 -1.391000000000000049e-02 8.244339999999999336e+00 7.782900000000000373e-01 1.217160000000000020e+00 2.069030000000000147e+00 9.583000000000000407e-01 1.205540000000000056e+00 8.243529999999999802e+00 1.731389999999999985e+00 2.417809999999999793e+00 1.030380000000000074e+01 2.290739999999999998e+00 1.214250000000000052e+00 6.181580000000000297e+00 3.808429999999999982e+00 1.201340000000000074e+00 1.030519999999999925e+01 4.224999999999999867e-01 -2.627000000000000168e-02 1.441060000000000052e+01 2.883270000000000000e+00 2.431979999999999809e+00 2.060989999999999878e+00 2.113750000000000018e+00 1.215969999999999995e+00 6.779999999999999569e-03 1.549830000000000041e+00 2.430449999999999999e+00 4.124139999999999695e+00
3.628039999999999932e+00 1.212429999999999897e+00 4.121459999999999901e+00 1.846599999999999908e-01 -9.830000000000000196e-03 6.186040000000000205e+00 3.032399999999999984e+00 -1.391000000000000049e-02 8.244339999999999336e+00 7.782900000000000373e-01 1.217160000000000020e+00 2.069030000000000147e+00 9.583000000000000407e-01 1.205540000000000056e+00 8.243529999999999802e+00 1.731389999999999985e+00 2.417809999999999793e+00 1.030380000000000074e+01 2.290739999999999998e+00 1.214250000000000052e+00 6.181580000000000297e+00 3.808429999999999982e+00 1.201340000000000074e+00 1.030519999999999925e+01 4.224999999999999867e-01 -2.627000000000000168e-02 1.441060000000000052e+01 2.883270000000000000e+00 2.431979999999999809e+00 2.060989999999999878e+00 2.113750000000000018e+00 1.215969999999999995e+00 6.779999999999999569e-03 1.549830000000000041e+00 2.430449999999999999e+00 4.124139999999999695e+00
9.514599999999999724e-01 1.071010000000000018e+00 7.929840000000000444e+00 2.911509999999999820e+00 5.142000000000000043e-02 2.012439999999999785e+00 2.270389999999999908e+00 1.180670000000000108e+00 5.951500000000000234e+00 7.761900000000000466e-01 1.186390000000000056e+00 2.045729999999999826e+00 4.459240000000000315e+00 -1.726000000000000104e-02 5.951270000000000060e+00 4.655569999999999986e+00 2.183339999999999836e+00 1.231119999999999948e+01 2.505389999999999784e+00 9.954199999999999715e-01 1.229950000000000010e+01 1.719260000000000010e+00 2.142700000000000049e+00 1.000839999999999996e+01 3.945110000000000117e+00 9.415799999999999725e-01 1.018810000000000038e+01 1.556540000000000035e+00 2.320850000000000080e+00 4.060080000000000133e+00 3.168919999999999959e+00 -6.657000000000000417e-02 7.931540000000000035e+00 3.735799999999999788e+00 1.099469999999999947e+00 3.987299999999999844e+00
3.619530000000000136e+00 1.281919999999999948e+00 4.109259999999999913e+00 4.387299999999999756e+00 2.389050000000000118e+00 6.136429999999999829e+00 3.009189999999999809e+00 4.692999999999999949e-02 8.185600000000000875e+00 7.758599999999999941e-01 1.177440000000000042e+00 2.114329999999999821e+00 1.004780000000000006e+00 1.241789999999999949e+00 8.237800000000000011e+00 1.793520000000000003e+00 2.359080000000000066e+00 1.031630000000000003e+01 2.313610000000000166e+00 1.146779999999999911e+00 6.203020000000000422e+00 3.733049999999999979e+00 1.204110000000000014e+00 1.026939999999999920e+01 4.603139999999999787e+00 1.528999999999999977e-02 1.434329999999999927e+01 2.851659999999999862e+00 4.503000000000000058e-02 2.133090000000000153e+00 2.054870000000000196e+00 1.234569999999999945e+00 5.553999999999999909e-02 1.610389999999999988e+00 2.354919999999999902e+00 4.153470000000000439e+00
3.619850000000000012e+00 1.252590000000000092e+00 4.122519999999999740e+00 2.250300000000000078e-01 2.416589999999999794e+00 6.212119999999999642e+00 3.049059999999999881e+00 2.421440000000000037e+00 8.216900000000000759e+00 7.865299999999999514e-01 1.181270000000000042e+00 2.050460000000000171e+00 9.482399999999999718e-01 1.215689999999999937e+00 8.263230000000000075e+00 1.659880000000000022e+00 -5.689999999999999745e-03 1.030070000000000086e+01 2.285029999999999895e+00 1.214199999999999946e+00 6.229849999999999888e+00 3.842179999999999929e+00 1.166420000000000012e+00 1.031209999999999916e+01 4.782699999999999729e-01 2.409390000000000143e+00 1.435880000000000045e+01 2.912300000000000111e+00 2.402639999999999887e+00 2.038749999999999840e+00 2.121840000000000170e+00 1.242909999999999959e+00 1.080000000000000057e-02 1.488390000000000102e+00 1.864999999999999991e-02 4.141329999999999956e+00
3.628039999999999932e+00 1.212429999999999897e+00 4.121459999999999901e+00 1.846599999999999908e-01 -9.830000000000000196e-03 6.186040000000000205e+00 3.032399999999999984e+00 -1.391000000000000049e-02 8.244339999999999336e+00 7.782900000000000373e-01 1.217160000000000020e+00 2.069030000000000147e+00 9.583000000000000407e-01 1.205540000000000056e+00 8.243529999999999802e+00 1.731389999999999985e+00 2.417809999999999793e+00 1.030380000000000074e+01 2.290739999999999998e+00 1.214250000000000052e+00 6.181580000000000297e+00 3.808429999999999982e+00 1.201340000000000074e+00 1.030519999999999925e+01 4.224999999999999867e-01 -2.627000000000000168e-02 1.441060000000000052e+01 2.883270000000000000e+00 2.431979999999999809e+00 2.060989999999999878e+00 2.113750000000000018e+00 1.215969999999999995e+00 6.779999999999999569e-03 1.549830000000000041e+00 2.430449999999999999e+00 4.124139999999999695e+00
3.652600000000000069e+00 1.317320000000000046e+00 4.110000000000000320e+00 4.392290000000000028e+00 2.352809999999999846e+00 6.108889999999999709e+00 3.032919999999999838e+00 9.052999999999999936e-02 8.153520000000000323e+00 7.670799999999999841e-01 1.151049999999999907e+00 2.134380000000000166e+00 1.001870000000000038e+00 1.278580000000000050e+00 8.242820000000000036e+00 1.776690000000000103e+00 2.319659999999999833e+00 1.036500000000000021e+01 2.313190000000000079e+00 1.090219999999999967e+00 6.206419999999999604e+00 3.732340000000000213e+00 1.192530000000000090e+00 1.026549999999999940e+01 4.573599999999999888e+00 5.145999999999999880e-02 1.426309999999999967e+01 2.862699999999999800e+00 8.458999999999999853e-02 2.156719999999999970e+00 2.028599999999999959e+00 1.260240000000000027e+00 6.865999999999999881e-02 1.623019999999999907e+00 2.307910000000000128e+00 4.182620000000000005e+00
3.650269999999999904e+00 1.254909999999999970e+00 4.161489999999999689e+00 4.340709999999999624e+00 5.904000000000000220e-02 6.229709999999999859e+00 3.104830000000000201e+00 2.397969999999999935e+00 8.284150000000000347e+00 7.785300000000000553e-01 1.209899999999999975e+00 2.041850000000000165e+00 1.001260000000000039e+00 1.172069999999999945e+00 8.215400000000000702e+00 1.753500000000000059e+00 2.410899999999999821e+00 1.032789999999999964e+01 2.268839999999999968e+00 1.223999999999999977e+00 6.205370000000000275e+00 3.752489999999999881e+00 1.145219999999999905e+00 1.026900000000000013e+01 4.600959999999999717e+00 4.470000000000000015e-03 1.435670000000000002e+01 2.903360000000000163e+00 2.383080000000000087e+00 2.097789999999999822e+00 2.543439999999999923e+00 1.200369999999999937e+00 1.435544999999999938e+01 1.480739999999999945e+00 8.250000000000000389e-03 4.123509999999999565e+00
3.600919999999999899e+00 1.285479999999999956e+00 4.125580000000000247e+00 2.201500000000000123e-01 2.410680000000000156e+00 6.226720000000000255e+00 3.038569999999999993e+00 2.418670000000000098e+00 8.221539999999999182e+00 7.985299999999999621e-01 1.148190000000000044e+00 2.032160000000000188e+00 9.326699999999999990e-01 1.223270000000000080e+00 8.283699999999999619e+00 1.661550000000000082e+00 -1.010000000000000047e-03 1.034070000000000000e+01 2.287100000000000133e+00 1.210720000000000018e+00 6.250750000000000028e+00 3.828279999999999905e+00 1.141760000000000108e+00 1.035699999999999932e+01 4.970800000000000218e-01 2.410070000000000157e+00 1.427490000000000059e+01 2.933199999999999807e+00 2.379859999999999864e+00 2.025520000000000209e+00 2.561830000000000052e+00 1.236539999999999973e+00 1.437996000000000052e+01 1.478790000000000049e+00 4.513000000000000345e-02 4.149779999999999802e+00
3.628039999999999932e+00 1.212429999999999897e+00 4.121459999999999901e+00 1.846599999999999908e-01 -9.830000000000000196e-03 6.186040000000000205e+00 3.032399999999999984e+00 -1.391000000000000049e-02 8.244339999999999336e+00 7.782900000000000373e-01 1.217160000000000020e+00 2.069030000000000147e+00 9.583000000000000407e-01 1.205540000000000056e+00 8.243529999999999802e+00 1.731389999999999985e+00 2.417809999999999793e+00 1.030380000000000074e+01 2.290739999999999998e+00 1.214250000000000052e+00 6.181580000000000297e+00 3.808429999999999982e+00 1.201340000000000074e+00 1.030519999999999925e+01 4.224999999999999867e-01 -2.627000000000000168e-02 1.441060000000000052e+01 2.883270000000000000e+00 2.431979999999999809e+00 2.060989999999999878e+00 2.113750000000000018e+00 1.215969999999999995e+00 6.779999999999999569e-03 1.549830000000000041e+00 2.430449999999999999e+00 4.124139999999999695e+00
4.761600000000000277e-01 4.640599999999999725e-01 1.954704999999999870e+01 1.517099999999999893e+00 2.455049999999999955e+00 4.141320000000000334e+00 3.551289999999999836e+00 1.341099999999999959e+00 4.184840000000000337e+00 2.933149999999999924e+00 1.988000000000000045e-01 8.265560000000000684e+00 2.219030000000000058e+00 1.277150000000000007e+00 6.228679999999999772e+00 4.306919999999999860e+00 2.510590000000000099e+00 6.186329999999999885e+00 1.603110000000000035e+00 3.060800000000000187e-01 1.045950000000000024e+01 3.713220000000000187e+00 1.527519999999999989e+00 1.044030000000000058e+01 7.548700000000000410e-01 1.283069999999999933e+00 2.120589999999999975e+00 2.524540000000000006e+00 1.679070000000000062e+00 1.956743000000000166e+01 2.835820000000000007e+00 8.984000000000000319e-02 2.052740000000000009e+00 8.603899999999999881e-01 1.436979999999999924e+00 8.269729999999999137e+00
5.004899999999999904e-01 5.454400000000000359e-01 1.958070999999999984e+01 1.505139999999999922e+00 2.470239999999999991e+00 4.128849999999999909e+00 3.559520000000000017e+00 1.323290000000000077e+00 4.106720000000000148e+00 2.935119999999999951e+00 2.585669999999999913e+00 8.232310000000000016e+00 2.248400000000000176e+00 1.305290000000000061e+00 6.229580000000000339e+00 4.253289999999999793e+00 1.903100000000000069e-01 6.300939999999999763e+00 1.611089999999999911e+00 3.154000000000000137e-01 1.032429999999999914e+01 3.755840000000000067e+00 1.429610000000000047e+00 1.036890000000000001e+01 7.489799999999999791e-01 1.319989999999999997e+00 2.104629999999999779e+00 2.066269999999999829e+00 1.199489999999999945e+00 7.721999999999999698e-02 2.821439999999999948e+00 2.450730000000000075e+00 2.145030000000000214e+00 8.391399999999999970e-01 1.405159999999999965e+00 8.233959999999999724e+00
3.536960000000000104e+00 1.300240000000000062e+00 4.025409999999999933e+00 2.151000000000000134e-01 6.576999999999999513e-02 6.122709999999999653e+00 3.118219999999999992e+00 2.388399999999999856e+00 8.331799999999999429e+00 9.012900000000000356e-01 1.170469999999999899e+00 2.109399999999999942e+00 9.555399999999999450e-01 1.257069999999999910e+00 8.159589999999999677e+00 1.530019999999999936e+00 2.345349999999999824e+00 1.036739999999999995e+01 2.342519999999999936e+00 1.214949999999999974e+00 6.179739999999999789e+00 3.628519999999999968e+00 1.185230000000000006e+00 1.064150000000000063e+01 1.467799999999999938e-01 2.331980000000000164e+00 1.708000000000000143e-02 2.964690000000000047e+00 2.414460000000000051e+00 1.982410000000000005e+00 2.611060000000000159e+00 1.218769999999999909e+00 1.415046000000000070e+01 1.465919999999999890e+00 4.343000000000000332e-02 4.170029999999999681e+00
5.163600000000000412e-01 6.104100000000000081e-01 1.951783999999999963e+01 1.502250000000000085e+00 2.429110000000000102e+00 4.146300000000000097e+00 3.574059999999999793e+00 1.312599999999999989e+00 4.108080000000000176e+00 2.894320000000000004e+00 2.544500000000000206e+00 8.231769999999999143e+00 2.225140000000000118e+00 1.263919999999999932e+00 6.218750000000000000e+00 4.248579999999999579e+00 2.055899999999999950e-01 6.307179999999999787e+00 1.629790000000000072e+00 3.686800000000000077e-01 1.030829999999999913e+01 3.762469999999999981e+00 1.413969999999999949e+00 1.039339999999999975e+01 7.447599999999999776e-01 1.355080000000000062e+00 2.114009999999999945e+00 2.102219999999999978e+00 1.204269999999999952e+00 1.091300000000000048e-01 2.829359999999999875e+00 2.436490000000000045e+00 2.165849999999999831e+00 8.154200000000000337e-01 1.396009999999999973e+00 8.212590000000000501e+00
3.638939999999999841e+00 1.189920000000000089e+00 4.120090000000000252e+00 2.325099999999999945e-01 2.423029999999999795e+00 6.169450000000000323e+00 3.017399999999999860e+00 -1.071000000000000077e-02 8.248820000000000263e+00 7.779000000000000359e-01 1.223749999999999893e+00 2.090530000000000221e+00 9.553700000000000525e-01 1.210460000000000091e+00 8.230489999999999640e+00 1.685769999999999991e+00 3.200000000000000262e-04 1.030509999999999948e+01 2.294169999999999821e+00 1.215100000000000069e+00 6.203330000000000233e+00 3.804479999999999862e+00 1.194970000000000088e+00 1.030460000000000065e+01 4.631280000000000285e+00 2.396760000000000002e+00 1.440349999999999930e+01 2.876250000000000195e+00 2.407249999999999890e+00 2.045370000000000132e+00 2.537380000000000191e+00 1.206909999999999927e+00 1.440310000000000024e+01 1.539840000000000098e+00 1.238999999999999997e-02 4.143900000000000361e+00
4.677100000000000146e-01 4.632499999999999951e-01 1.959778000000000020e+01 1.513400000000000079e+00 2.485250000000000181e+00 4.146289999999999587e+00 3.544500000000000206e+00 1.336419999999999941e+00 4.180109999999999992e+00 2.943379999999999885e+00 1.962099999999999955e-01 8.266040000000000276e+00 2.217369999999999841e+00 1.320019999999999971e+00 6.217950000000000088e+00 1.293499999999999928e-01 2.547130000000000116e+00 6.197840000000000238e+00 1.605259999999999909e+00 2.733999999999999764e-01 1.040520000000000067e+01 3.722329999999999917e+00 1.496559999999999890e+00 1.039450000000000074e+01 7.547399999999999665e-01 1.274799999999999933e+00 2.103130000000000166e+00 2.511350000000000193e+00 1.675079999999999902e+00 1.961642000000000152e+01 2.829470000000000152e+00 7.272000000000000686e-02 2.067219999999999835e+00 8.774300000000000432e-01 1.428490000000000038e+00 8.271610000000000795e+00
9.637099999999999556e-01 1.061439999999999939e+00 7.966529999999999667e+00 2.938480000000000203e+00 -3.159000000000000002e-02 2.018530000000000157e+00 2.320800000000000196e+00 1.095150000000000068e+00 5.984549999999999592e+00 7.772099999999999564e-01 1.184819999999999984e+00 2.007460000000000022e+00 4.484530000000000349e+00 -8.307000000000000495e-02 5.972550000000000026e+00 3.813300000000000023e-01 2.203310000000000102e+00 1.238739999999999952e+01 2.526539999999999786e+00 9.828700000000000214e-01 1.242329999999999934e+01 1.729370000000000074e+00 -1.320000000000000062e-01 1.001939999999999920e+01 3.863179999999999836e+00 1.039349999999999996e+00 9.990830000000000766e+00 1.573679999999999968e+00 -3.896999999999999770e-02 3.968150000000000066e+00 3.095819999999999794e+00 2.275180000000000202e+00 7.964120000000000310e+00 3.706290000000000084e+00 1.126779999999999893e+00 3.974070000000000213e+00
1.026149999999999896e+00 9.959900000000000420e-01 7.995409999999999684e+00 3.002099999999999991e+00 5.655999999999999917e-02 2.002990000000000048e+00 2.309079999999999799e+00 1.174630000000000063e+00 5.941970000000000418e+00 7.769700000000000495e-01 1.095679999999999987e+00 2.018549999999999844e+00 4.490429999999999922e+00 -9.145999999999999963e-02 5.938299999999999912e+00 4.631969999999999921e+00 -1.795899999999999996e-01 1.235870000000000068e+01 2.092159999999999798e+00 1.189319999999999933e+00 1.174000000000000044e-02 1.768150000000000110e+00 -1.242599999999999955e-01 9.974610000000000198e+00 3.848730000000000206e+00 1.013719999999999954e+00 1.005850000000000044e+01 1.500469999999999970e+00 2.312419999999999920e+00 4.003820000000000157e+00 3.197410000000000085e+00 2.241979999999999862e+00 7.965110000000000134e+00 3.651170000000000027e+00 1.195019999999999971e+00 3.956249999999999822e+00
9.408499999999999641e-01 1.069550000000000001e+00 7.929570000000000007e+00 2.924220000000000041e+00 1.518000000000000078e-02 2.021059999999999857e+00 2.279959999999999987e+00 1.144209999999999949e+00 5.950470000000000148e+00 7.663200000000000012e-01 1.178099999999999925e+00 2.046019999999999950e+00 4.489819999999999922e+00 -5.330000000000000016e-02 5.964319999999999844e+00 4.662650000000000183e+00 2.198879999999999946e+00 1.240339999999999954e+01 2.514380000000000059e+00 9.985100000000000087e-01 1.240029999999999966e+01 1.711810000000000054e+00 2.195149999999999935e+00 9.951909999999999812e+00 3.925980000000000025e+00 9.895899999999999697e-01 1.004739999999999966e+01 1.546680000000000055e+00 2.331830000000000069e+00 4.045099999999999696e+00 3.157849999999999824e+00 -9.241000000000000603e-02 7.931090000000000195e+00 3.734890000000000043e+00 1.113730000000000109e+00 3.986299999999999955e+00
3.661579999999999835e+00 1.171680000000000055e+00 4.110360000000000014e+00 2.264899999999999969e-01 2.414810000000000123e+00 6.167740000000000222e+00 3.018580000000000041e+00 -5.879999999999999810e-03 8.277089999999999392e+00 7.729099999999999859e-01 1.216469999999999940e+00 2.075740000000000141e+00 9.234400000000000386e-01 1.220029999999999948e+00 8.245340000000000558e+00 1.663000000000000034e+00 2.331000000000000086e-02 1.041350000000000087e+01 2.328580000000000094e+00 1.213109999999999911e+00 6.227879999999999860e+00 3.775319999999999787e+00 1.198139999999999983e+00 1.040939999999999976e+01 4.572100000000000053e-01 2.388360000000000039e+00 1.429879999999999995e+01 2.878390000000000004e+00 2.386299999999999866e+00 2.016869999999999941e+00 2.521399999999999864e+00 1.218080000000000052e+00 1.427356999999999942e+01 1.576759999999999939e+00 2.574999999999999858e-02 4.152000000000000135e+00
4.971499999999999808e-01 6.483299999999999619e-01 1.945370000000000132e+01 1.471729999999999983e+00 2.415919999999999845e+00 4.193439999999999834e+00 3.608690000000000175e+00 1.278990000000000071e+00 4.159340000000000259e+00 2.854579999999999895e+00 2.506619999999999848e+00 8.287269999999999470e+00 2.158889999999999976e+00 1.250380000000000047e+00 6.185270000000000046e+00 4.290180000000000327e+00 1.875799999999999967e-01 6.236790000000000056e+00 1.670879999999999921e+00 3.887399999999999745e-01 1.032099999999999973e+01 3.736569999999999947e+00 1.426299999999999901e+00 1.043180000000000085e+01 7.318599999999999550e-01 1.361040000000000028e+00 2.087330000000000130e+00 2.179530000000000189e+00 1.236490000000000089e+00 1.038300000000000056e-01 2.848710000000000075e+00 2.453990000000000116e+00 2.131460000000000132e+00 7.959500000000000464e-01 1.386220000000000008e+00 8.241949999999999221e+00
3.600750000000000117e+00 1.248559999999999892e+00 4.075230000000000352e+00 4.345279999999999809e+00 2.723000000000000073e-02 6.151010000000000311e+00 3.046009999999999884e+00 2.400020000000000042e+00 8.250679999999999126e+00 8.306200000000000250e-01 1.199600000000000000e+00 2.120919999999999916e+00 1.001509999999999900e+00 1.236960000000000059e+00 8.183550000000000324e+00 1.685720000000000107e+00 2.380609999999999893e+00 1.029879999999999995e+01 2.354350000000000165e+00 1.203209999999999891e+00 6.184809999999999697e+00 3.730579999999999785e+00 1.207379999999999898e+00 1.040700000000000003e+01 4.207550000000000345e+00 2.388710000000000111e+00 5.278000000000000053e-02 2.913569999999999993e+00 2.420360000000000067e+00 2.037040000000000184e+00 2.597999999999999865e+00 1.213840000000000030e+00 1.435403999999999947e+01 1.477959999999999940e+00 9.610000000000000486e-03 4.141639999999999766e+00
3.566260000000000208e+00 1.279490000000000016e+00 4.040379999999999860e+00 4.357750000000000234e+00 5.419999999999999818e-02 6.127439999999999998e+00 3.068340000000000067e+00 2.385380000000000056e+00 8.276469999999999771e+00 8.737200000000000522e-01 1.182909999999999906e+00 2.137820000000000054e+00 9.957399999999999585e-01 1.256620000000000070e+00 8.151199999999999335e+00 1.616559999999999997e+00 2.354960000000000164e+00 1.032499999999999929e+01 2.371599999999999930e+00 1.201670000000000016e+00 6.182000000000000384e+00 3.672530000000000072e+00 1.202990000000000004e+00 1.052219999999999978e+01 5.924000000000000099e-02 2.350010000000000154e+00 5.838000000000000134e-02 2.941209999999999880e+00 2.413769999999999971e+00 2.015449999999999964e+00 2.619450000000000056e+00 1.226720000000000033e+00 1.426125000000000043e+01 1.461880000000000068e+00 2.739000000000000115e-02 4.159980000000000011e+00
