3.633503000000000149e+00 0.000000000000000000e+00 0.000000000000000000e+00 0.000000000000000000e+00 3.633503000000000149e+00 0.000000000000000000e+00 0.000000000000000000e+00 0.000000000000000000e+00 1.790361899999999906e+01
3.706173000000000162e+00 0.000000000000000000e+00 0.000000000000000000e+00 0.000000000000000000e+00 3.706173000000000162e+00 0.000000000000000000e+00 0.000000000000000000e+00 0.000000000000000000e+00 1.162169199999999947e+01
3.778843000000000174e+00 0.000000000000000000e+00 0.000000000000000000e+00 0.000000000000000000e+00 3.778843000000000174e+00 0.000000000000000000e+00 0.000000000000000000e+00 0.000000000000000000e+00 1.633976399999999884e+01
3.851513000000000186e+00 0.000000000000000000e+00 0.000000000000000000e+00 0.000000000000000000e+00 3.851513000000000186e+00 0.000000000000000000e+00 0.000000000000000000e+00 0.000000000000000000e+00 1.855783600000000177e+01
3.706173000000000162e+00 0.000000000000000000e+00 0.000000000000000000e+00 0.000000000000000000e+00 3.706173000000000162e+00 0.000000000000000000e+00 0.000000000000000000e+00 0.000000000000000000e+00 1.812169199999999947e+01
3.706173000000000162e+00 0.000000000000000000e+00 0.000000000000000000e+00 0.000000000000000000e+00 3.706173000000000162e+00 0.000000000000000000e+00 0.000000000000000000e+00 0.000000000000000000e+00 1.812169199999999947e+01
3.706173000000000162e+00 0.000000000000000000e+00 0.000000000000000000e+00 0.000000000000000000e+00 3.706173000000000162e+00 0.000000000000000000e+00 0.000000000000000000e+00 0.000000000000000000e+00 1.162169199999999947e+01
3.706173000000000162e+00 0.000000000000000000e+00 0.000000000000000000e+00 0.000000000000000000e+00 3.706173000000000162e+00 0.000000000000000000e+00 0.000000000000000000e+00 0.000000000000000000e+00 1.812169199999999947e+01
3.560833000000000137e+00 0.000000000000000000e+00 0.000000000000000000e+00 0.000000000000000000e+00 3.560833000000000137e+00 0.000000000000000000e+00 0.000000000000000000e+00 0.000000000000000000e+00 1.168554699999999968e+01
3.633503000000000149e+00 0.000000000000000000e+00 0.000000000000000000e+00 0.000000000000000000e+00 3.633503000000000149e+00 0.000000000000000000e+00 0.000000000000000000e+00 0.000000000000000000e+00 1.790361899999999906e+01
3.560833000000000137e+00 0.000000000000000000e+00 0.000000000000000000e+00 0.000000000000000000e+00 3.560833000000000137e+00 0.000000000000000000e+00 0.000000000000000000e+00 0.000000000000000000e+00 1.668554699999999968e+01
3.560833000000000137e+00 0.000000000000000000e+00 0.000000000000000000e+00 0.000000000000000000e+00 3.560833000000000137e+00 0.000000000000000000e+00 0.000000000000000000e+00 0.000000000000000000e+00 1.168554699999999968e+01
3.706173000000000162e+00 0.000000000000000000e+00 0.000000000000000000e+00 0.000000000000000000e+00 3.706173000000000162e+00 0.000000000000000000e+00 0.000000000000000000e+00 0.000000000000000000e+00 1.812169199999999947e+01
3.633503000000000149e+00 0.000000000000000000e+00 0.000000000000000000e+00 0.000000000000000000e+00 3.633503000000000149e+00 0.000000000000000000e+00 0.000000000000000000e+00 0.000000000000000000e+00 1.790361899999999906e+01
3.633503000000000149e+00 0.000000000000000000e+00 0.000000000000000000e+00 0.000000000000000000e+00 3.633503000000000149e+00 0.000000000000000000e+00 0.000000000000000000e+00 0.000000000000000000e+00 1.790361899999999906e+01
3.778843000000000174e+00 0.000000000000000000e+00 0.000000000000000000e+00 0.000000000000000000e+00 3.778843000000000174e+00 0.000000000000000000e+00 0.000000000000000000e+00 0.000000000000000000e+00 1.483976400000000062e+01
3.778843000000000174e+00 0.000000000000000000e+00 0.000000000000000000e+00 0.000000000000000000e+00 3.778843000000000174e+00 0.000000000000000000e+00 0.000000000000000000e+00 0.000000000000000000e+00 1.633976399999999884e+01
3.488163000000000125e+00 0.000000000000000000e+00 0.000000000000000000e+00 0.000000000000000000e+00 3.488163000000000125e+00 0.000000000000000000e+00 0.000000000000000000e+00 0.000000000000000000e+00 1.846747399999999928e+01
3.851513000000000186e+00 0.000000000000000000e+00 0.000000000000000000e+00 0.000000000000000000e+00 3.851513000000000186e+00 0.000000000000000000e+00 0.000000000000000000e+00 0.000000000000000000e+00 1.755783600000000177e+01
3.560833000000000137e+00 0.000000000000000000e+00 0.000000000000000000e+00 0.000000000000000000e+00 3.560833000000000137e+00 0.000000000000000000e+00 0.000000000000000000e+00 0.000000000000000000e+00 1.418554699999999968e+01
3.633503000000000149e+00 0.000000000000000000e+00 0.000000000000000000e+00 0.000000000000000000e+00 3.633503000000000149e+00 0.000000000000000000e+00 0.000000000000000000e+00 0.000000000000000000e+00 1.790361899999999906e+01
3.488163000000000125e+00 0.000000000000000000e+00 0.000000000000000000e+00 0.000000000000000000e+00 3.488163000000000125e+00 0.000000000000000000e+00 0.000000000000000000e+00 0.000000000000000000e+00 1.946747399999999928e+01
3.851513000000000186e+00 0.000000000000000000e+00 0.000000000000000000e+00 0.000000000000000000e+00 3.851513000000000186e+00 0.000000000000000000e+00 0.000000000000000000e+00 0.000000000000000000e+00 1.505783600000000000e+01
3.633503000000000149e+00 0.000000000000000000e+00 0.000000000000000000e+00 0.000000000000000000e+00 3.633503000000000149e+00 0.000000000000000000e+00 0.000000000000000000e+00 0.000000000000000000e+00 1.790361899999999906e+01
3.488163000000000125e+00 0.000000000000000000e+00 0.000000000000000000e+00 0.000000000000000000e+00 3.488163000000000125e+00 0.000000000000000000e+00 0.000000000000000000e+00 0.000000000000000000e+00 1.846747399999999928e+01
3.778843000000000174e+00 0.000000000000000000e+00 0.000000000000000000e+00 0.000000000000000000e+00 3.778843000000000174e+00 0.000000000000000000e+00 0.000000000000000000e+00 0.000000000000000000e+00 1.483976400000000062e+01
3.851513000000000186e+00 0.000000000000000000e+00 0.000000000000000000e+00 0.000000000000000000e+00 3.851513000000000186e+00 0.000000000000000000e+00 0.000000000000000000e+00 0.000000000000000000e+00 1.555783600000000000e+01
3.488163000000000125e+00 0.000000000000000000e+00 0.000000000000000000e+00 0.000000000000000000e+00 3.488163000000000125e+00 0.000000000000000000e+00 0.000000000000000000e+00 0.000000000000000000e+00 1.846747399999999928e+01
3.560833000000000137e+00 0.000000000000000000e+00 0.000000000000000000e+00 0.000000000000000000e+00 3.560833000000000137e+00 0.000000000000000000e+00 0.000000000000000000e+00 0.000000000000000000e+00 1.968554699999999968e+01
3.706173000000000162e+00 0.000000000000000000e+00 0.000000000000000000e+00 0.000000000000000000e+00 3.706173000000000162e+00 0.000000000000000000e+00 0.000000000000000000e+00 0.000000000000000000e+00 1.812169199999999947e+01
3.633503000000000149e+00 0.000000000000000000e+00 0.000000000000000000e+00 0.000000000000000000e+00 3.633503000000000149e+00 0.000000000000000000e+00 0.000000000000000000e+00 0.000000000000000000e+00 1.790361899999999906e+01
3.778843000000000174e+00 0.000000000000000000e+00 0.000000000000000000e+00 0.000000000000000000e+00 3.778843000000000174e+00 0.000000000000000000e+00 0.000000000000000000e+00 0.000000000000000000e+00 1.433976400000000062e+01
3.633503000000000149e+00 0.000000000000000000e+00 0.000000000000000000e+00 0.000000000000000000e+00 3.633503000000000149e+00 0.000000000000000000e+00 0.000000000000000000e+00 0.000000000000000000e+00 1.990361899999999906e+01
3.633503000000000149e+00 0.000000000000000000e+00 0.000000000000000000e+00 0.000000000000000000e+00 3.633503000000000149e+00 0.000000000000000000e+00 0.000000000000000000e+00 0.000000000000000000e+00 1.790361899999999906e+01
3.560833000000000137e+00 0.000000000000000000e+00 0.000000000000000000e+00 0.000000000000000000e+00 3.560833000000000137e+00 0.000000000000000000e+00 0.000000000000000000e+00 0.000000000000000000e+00 1.968554699999999968e+01
3.560833000000000137e+00 0.000000000000000000e+00 0.000000000000000000e+00 0.000000000000000000e+00 3.560833000000000137e+00 0.000000000000000000e+00 0.000000000000000000e+00 0.000000000000000000e+00 1.168554699999999968e+01
3.488163000000000125e+00 0.000000000000000000e+00 0.000000000000000000e+00 0.000000000000000000e+00 3.488163000000000125e+00 0.000000000000000000e+00 0.000000000000000000e+00 0.000000000000000000e+00 1.296747399999999928e+01
3.633503000000000149e+00 0.000000000000000000e+00 0.000000000000000000e+00 0.000000000000000000e+00 3.633503000000000149e+00 0.000000000000000000e+00 0.000000000000000000e+00 0.000000000000000000e+00 1.790361899999999906e+01
3.633503000000000149e+00 0.000000000000000000e+00 0.000000000000000000e+00 0.000000000000000000e+00 3.633503000000000149e+00 0.000000000000000000e+00 0.000000000000000000e+00 0.000000000000000000e+00 1.790361899999999906e+01
