4.523139999999999938e-01 6.805300000000000238e-02 -4.956530000000000102e-01 3.970400000000000318e-02 -2.023729999999999973e-01 2.306900000000000062e-01 3.119799999999999796e-01 -9.407699999999999396e-02 6.767400000000000082e-01 9.503009999999999513e-01 -2.327450000000000074e-01 -4.557950000000000057e-01 -8.031599999999999850e-02 9.269499999999999962e-02 -1.666769999999999918e-01 -4.132999999999999868e-02 6.690500000000000613e-02 6.808000000000000163e-02 -7.404300000000000326e-01 -5.239369999999999861e-01 5.401839999999999975e-01 -2.062399999999999997e-02 6.727969999999999784e-01 6.126089999999999591e-01 -8.639700000000000157e-02 1.581230000000000135e-01 -3.437370000000000148e-01 -1.420369999999999966e-01 6.566380000000000550e-01 2.388460000000000027e-01 -3.935000000000000164e-01 -9.955300000000000260e-02 -5.149780000000000468e-01 -2.496659999999999990e-01 -5.625250000000000528e-01 -3.903110000000000190e-01
-7.117860000000000298e-01 3.625700000000000034e-01 -9.860149999999999748e-01 -1.623670000000000113e-01 -9.817599999999999660e-01 3.391040000000000165e-01 -2.053439999999999988e-01 -1.010793000000000053e+00 -2.964559999999999973e-01 1.686100000000000099e-02 4.642439999999999900e-01 -8.166909999999999448e-01 -2.641450000000000187e-01 3.126510000000000122e-01 2.300830000000000097e-01 -7.526289999999999925e-01 3.280000000000000138e-01 8.374500000000000277e-01 -9.755660000000000442e-01 -1.128991999999999996e+00 -1.551150000000000029e-01 -3.496429999999999816e-01 6.781920000000000170e-01 8.579970000000000097e-01 2.355506999999999795e+00 1.443970999999999894e+00 4.160130000000000217e-01 -3.814599999999999991e+00 -4.288605999999999696e+00 -8.464429999999999454e-01 4.498002999999999751e+00 3.596436999999999884e+00 5.790800000000000114e-02 3.657090000000000063e-01 2.240850000000000064e-01 3.621630000000000127e-01
-7.688730000000000286e-01 -5.875399999999999512e-01 4.972489999999999966e-01 -4.047470000000000234e-01 -2.077380000000000060e-01 1.915239999999999998e-01 -6.540249999999999675e-01 -2.787326000000000192e+00 -3.295526000000000177e+00 2.401186000000000043e+00 1.967700999999999922e+00 -4.833509999999999751e-01 -2.835713999999999846e+00 -2.334426999999999808e+00 -6.940979999999999928e-01 -2.837779999999999747e-01 6.376460000000000461e-01 3.368229999999999835e-01 5.720150000000000512e-01 8.204500000000000681e-02 -5.861750000000000016e-01 1.014818999999999916e+00 3.102368999999999932e+00 3.407789999999999875e+00 -2.507409999999999917e-01 2.547479999999999745e-01 -2.335964000000000151e+00 1.094950000000000090e+00 7.703899999999999637e-02 1.436522999999999994e+00 9.465940000000000465e-01 3.381700000000000261e-01 3.795549999999999757e-01 -8.316850000000000076e-01 -5.426870000000000305e-01 1.145648999999999917e+00
5.176800000000000151e-02 -3.848599999999999938e-02 -1.281768000000000018e+00 -3.399170000000000247e-01 1.447819999999999940e-01 -1.441243999999999970e+00 1.575404000000000027e+00 -9.181259999999999977e-01 2.806383999999999990e+00 9.564019999999999744e-01 -4.670400000000000107e-01 -1.447518000000000082e+00 -6.388199999999999434e-02 -3.921212999999999838e+00 -2.913606999999999836e+00 -8.750430000000000152e-01 3.934652999999999956e+00 -2.285365999999999786e+00 9.819609999999999728e-01 1.788450000000000095e+00 -1.989009000000000027e+00 1.094559999999999977e-01 -9.553799999999999792e-02 1.213710999999999984e+00 -7.181800000000000683e-02 3.857638000000000122e+00 2.982607999999999926e+00 2.945280000000000120e-01 -3.884943999999999953e+00 4.570936999999999806e+00 -2.164099000000000217e+00 -2.176500000000000101e-01 -5.437929999999999708e-01 -4.547599999999999976e-01 -1.825269999999999948e-01 3.286640000000000117e-01
1.996670000000000111e-01 -4.855129999999999724e-01 4.111389999999999767e-01 4.358630000000000004e-01 -2.396749999999999992e-01 -8.989700000000000468e-01 7.000180000000000291e-01 -4.167400000000000271e-02 -1.082472000000000101e+00 -4.886220000000000008e-01 -2.327239999999999864e-01 2.669090000000000074e-01 1.133831999999999951e+00 1.084410000000000096e+00 -1.038089999999999985e-01 2.212189999999999990e-01 1.628350000000000075e-01 5.541110000000000202e-01 -2.368290000000000117e-01 -1.604339999999999933e-01 6.824289999999999523e-01 -1.211538000000000004e+00 -1.535746000000000056e+00 -9.190099999999999658e-02 -3.594100000000000072e-01 3.593999999999999972e-01 -6.542299999999999782e-01 2.284190000000000109e-01 1.150940000000000019e-01 5.562270000000000270e-01 -3.093130000000000046e-01 -2.332339999999999969e-01 5.237070000000000336e-01 -3.133059999999999734e-01 1.207260999999999918e+00 -1.631400000000000072e-01
8.306569999999999787e-01 -1.089363000000000081e+00 2.293270000000000031e-01 4.546740000000000226e-01 -1.068759999999999988e-01 -8.818740000000000467e-01 1.129342000000000068e+00 5.761899999999999661e-02 -6.048179999999999668e-01 -1.266157999999999895e+00 3.982289999999999996e-01 9.117799999999999516e-02 4.289780000000000260e-01 -2.980610000000000204e-01 -7.493260000000000476e-01 3.069230000000000014e-01 4.073910000000000031e-01 5.794019999999999726e-01 -3.303749999999999742e-01 -3.925370000000000248e-01 7.140269999999999673e-01 -5.386849999999999694e-01 -4.463130000000000153e-01 2.442700000000000080e-02 -3.618950000000000222e-01 1.124519999999999964e-01 -5.676130000000000342e-01 3.199770000000000114e-01 -4.997409999999999908e-01 5.611089999999999689e-01 -4.160929999999999906e-01 4.930999999999999828e-01 4.183819999999999761e-01 -5.573449999999999793e-01 1.364100000000000090e+00 1.857789999999999997e-01
1.494018999999999986e+00 3.585809999999999831e-01 1.112473000000000045e+00 -1.488180000000000058e-01 5.386800000000000477e-01 -3.449499999999999789e-01 1.055533999999999972e+00 2.331940000000000124e-01 -7.598240000000000549e-01 -4.643289999999999917e-01 -9.338599999999999679e-02 -1.555701999999999918e+00 -3.697920000000000096e-01 -1.487449999999999939e+00 -1.496877000000000013e+00 -1.933799999999999963e-01 -8.171100000000000030e-01 7.333169999999999966e-01 1.321214000000000111e+00 5.354560000000000430e-01 -9.083399999999999808e-02 -3.718029999999999946e-01 -7.392879999999999452e-01 5.505830000000000446e-01 -1.488178999999999919e+00 -7.748760000000000092e-01 1.502574000000000076e+00 3.234074000000000115e+00 5.282772999999999719e+00 1.543039999999999967e-01 -3.763741000000000003e+00 -3.684790000000000010e+00 -5.923439999999999817e-01 -3.048000000000000154e-01 6.482149999999999856e-01 7.872799999999999798e-01
-4.050270000000000259e-01 6.751319999999999544e-01 3.174469999999999792e-01 2.747140000000000137e-01 -1.618799999999999961e-01 -1.027055000000000051e+00 -9.228049999999999864e-01 -3.936259999999999759e-01 -8.141399999999999748e-01 1.000612000000000057e+00 -3.974809999999999732e-01 1.401129999999999876e-01 -1.739114000000000049e+00 2.002995999999999999e+00 7.810699999999999588e-02 1.504999999999999914e-02 -3.772940000000000182e-01 5.873000000000000442e-01 -2.979899999999999910e-02 3.945980000000000043e-01 6.378340000000000121e-01 1.594246999999999970e+00 -2.224076999999999860e+00 -1.489310000000000078e-01 1.291960000000000053e-01 3.010140000000000038e-01 -4.325400000000000078e-02 -1.017290000000000000e-01 1.013498999999999928e+00 3.492750000000000021e-01 -2.954030000000000267e-01 -1.147442000000000073e+00 2.212560000000000082e-01 4.800590000000000135e-01 3.145620000000000083e-01 -2.979510000000000214e-01
4.793819000000000052e+00 -4.591915000000000191e+00 -2.314640000000000031e-01 -1.487502000000000102e+00 8.803800000000000514e-02 4.057499999999999996e-01 4.634789999999999743e-01 -1.772200000000000164e-02 -2.908769999999999967e-01 1.022720000000000018e-01 1.508192999999999895e+00 -8.714880000000000404e-01 -3.207559999999999856e-01 5.704029999999999934e-01 6.895600000000000340e-02 -4.021462999999999788e+00 5.208353999999999928e+00 -6.315099999999999880e-02 7.728260000000000129e-01 -1.582081999999999988e+00 -2.002220000000000111e-01 -5.697670000000000234e-01 9.401500000000000135e-02 -2.740009999999999946e-01 -4.679719999999999991e-01 -1.533732000000000095e+00 8.837399999999999423e-02 -1.744162999999999908e+00 -1.131094000000000044e+00 1.946469999999999922e+00 1.815928999999999904e+00 -6.997269999999999879e-01 -1.249179999999999957e+00 6.632989999999999720e-01 2.087269000000000041e+00 6.708349999999999591e-01
-2.138018999999999892e+00 1.917859999999999898e+00 6.798239999999999839e-01 4.167620000000000213e-01 -7.265399999999999636e-02 -3.850469999999999726e-01 3.329900000000000082e-01 4.144289999999999918e-01 3.150229999999999975e-01 5.152630000000000265e-01 2.175459999999999894e-01 -8.059600000000000097e-01 9.229330000000000034e-01 9.698069999999999746e-01 8.606099999999999861e-02 1.390639999999999932e-01 8.979179999999999939e-01 -1.484779999999999989e-01 -4.105940000000000145e-01 -9.713099999999999512e-02 6.766029999999999545e-01 -5.376959999999999518e-01 -5.292740000000000222e-01 -4.822520000000000140e-01 -4.103229999999999933e-01 1.131479999999999986e-01 4.283270000000000133e-01 -1.027068000000000092e+00 -1.098282999999999898e+00 1.159680000000000016e-01 2.192010999999999932e+00 -2.300994999999999902e+00 -1.036948999999999899e+00 4.677999999999999867e-03 -4.323710000000000053e-01 5.568809999999999594e-01
-5.522460000000000147e-01 3.016670000000000185e-01 2.673130000000000228e-01 -2.670750000000000068e-01 -2.314259999999999928e-01 -5.454449999999999577e-01 -4.218117999999999590e+00 -3.192420999999999953e+00 -1.218209999999999987e-01 -6.964719999999999800e-01 4.706060000000000243e-01 -2.281855000000000189e+00 -2.128909999999999969e-01 -5.095600000000000129e-01 -5.809640000000000359e-01 -2.210799999999999918e-02 -9.377330000000000387e-01 1.225050999999999890e+00 4.025927000000000255e+00 3.927221999999999991e+00 1.614539999999999864e-01 5.661829999999999918e-01 4.264649999999999830e-01 2.762299999999999756e-01 -1.513703999999999938e+00 8.515289999999999804e-01 2.622329999999999939e-01 3.078400000000000025e-01 -1.837189999999999934e-01 1.451190999999999898e+00 1.469292999999999960e+00 6.775309999999999944e-01 3.633060000000000178e-01 1.113371000000000111e+00 -1.600160999999999945e+00 -4.766949999999999799e-01
-4.073399000000000214e+00 -4.436729999999999841e-01 1.553171999999999997e+00 -4.478401999999999994e+00 -4.253858000000000139e+00 2.996170000000000222e-01 4.453500000000000236e-01 9.956549999999999567e-01 1.243805000000000049e+00 6.233300000000000507e-01 9.164080000000000004e-01 -8.881459999999999910e-01 -3.965199999999999836e-01 -7.805940000000000101e-01 -2.058882000000000101e+00 3.435779000000000138e+00 9.367149999999999643e-01 -4.666700000000000015e-02 5.123680000000000456e-01 -9.536810000000000009e-01 4.985189999999999899e-01 4.282440000000000135e-01 9.061040000000000205e-01 5.043899999999999773e-02 -7.442590000000000039e-01 -1.408336999999999950e+00 -1.363050000000000095e+00 1.008069999999999938e-01 -8.250239999999999796e-01 8.655929999999999458e-01 4.783970000000000056e+00 3.518981000000000137e+00 -5.979950000000000543e-01 -6.372689999999999744e-01 1.391304000000000096e+00 4.435959999999999903e-01
2.239299999999999971e-02 -4.803400000000000031e-02 3.415599999999999747e-01 3.778710000000000124e-01 -2.351699999999999902e-01 -9.417830000000000368e-01 -1.540660000000000085e-01 -2.313099999999999878e-01 -1.159907000000000021e+00 1.404479999999999895e-01 -2.004910000000000025e-01 2.729170000000000207e-01 2.135380000000000056e-01 1.653939999999999966e+00 1.463909999999999934e-01 1.578340000000000021e-01 -1.380959999999999965e-01 5.579349999999999588e-01 -1.669670000000000043e-01 1.469660000000000133e-01 6.517159999999999620e-01 -3.113230000000000164e-01 -1.918077000000000032e+00 -1.288529999999999953e-01 -2.342299999999999938e-01 3.673870000000000191e-01 -4.712720000000000242e-01 3.437009999999999788e-01 7.584189999999999543e-01 4.948420000000000041e-01 -4.862529999999999908e-01 -8.870099999999999651e-01 4.371010000000000173e-01 9.705300000000000038e-02 7.314749999999999863e-01 -2.006469999999999920e-01
-8.122239999999999460e-01 4.630999999999999700e-03 1.024118000000000084e+00 2.578739999999999921e-01 3.044760000000000244e-01 -1.045490999999999948e+00 5.330209999999999670e-01 2.082509999999999917e-01 -3.216339999999999755e-01 4.259890000000000065e-01 5.320099999999999829e-01 -6.090780000000000083e-01 3.628179999999999739e-01 4.231790000000000274e-01 -2.044159999999999866e-01 1.735799999999999843e-02 7.197900000000000409e-01 -3.753509999999999902e-01 -4.008180000000000076e-01 -1.488100000000000013e-02 7.789610000000000145e-01 -9.594540000000000290e-01 -4.991860000000000186e-01 6.074399999999999938e-02 -2.704190000000000205e-01 1.602939999999999920e-01 6.552200000000000246e-01 -3.876379999999999826e-01 -9.445989999999999664e-01 1.184090000000000004e-01 9.498109999999999609e-01 -6.952570000000000139e-01 -7.784189999999999721e-01 2.836819999999999897e-01 -1.987079999999999957e-01 6.969359999999999999e-01
6.423799999999999510e-01 -6.740169999999999773e-01 -2.690830000000000166e-01 -2.880849999999999800e-01 -1.049049999999999983e-01 3.370639999999999747e-01 2.286880000000000024e-01 -4.861400000000000166e-01 6.039229999999999876e-01 4.733539999999999970e-01 1.624950000000000006e-01 2.651339999999999808e-01 -2.498730000000000118e-01 1.937059999999999893e-01 -2.609130000000000060e-01 -1.556089999999999973e-01 -1.876269999999999882e-01 9.286899999999999322e-02 -3.803400000000000114e-01 -6.047449999999999770e-01 5.313529999999999642e-01 5.896599999999999758e-02 9.315980000000000372e-01 6.630859999999999532e-01 1.594790000000000096e-01 1.275469999999999937e-01 -9.833159999999999679e-01 1.485789999999999889e-01 2.412779999999999925e-01 -3.219130000000000047e-01 -5.230169999999999542e-01 6.086989999999999901e-01 -2.309019999999999961e-01 -1.145209999999999978e-01 -2.078889999999999905e-01 -4.273020000000000151e-01
-8.123979999999999535e-01 -7.524830000000000130e-01 5.555999999999999828e-02 6.132100000000000328e-01 -7.349029999999999729e-01 -1.108935000000000004e+00 7.219999999999999855e-04 -4.597999999999999657e-03 1.082962999999999898e+00 5.110699999999999965e-02 9.817919999999999980e-01 6.410470000000000335e-01 -6.444550000000000001e-01 -1.259941999999999895e+00 -1.311620000000000008e-01 3.192440000000000278e-01 1.133502000000000010e+00 1.703081000000000067e+00 2.957629999999999981e-01 6.934890000000000221e-01 3.212059999999999915e-01 7.897939999999999960e-01 1.680118999999999918e+00 2.261700000000000099e-01 -6.634870000000000489e-01 -1.609639999999999960e-01 -6.391550000000000287e-01 -7.480759999999999632e-01 -7.422009999999999996e-01 -3.109040000000000137e-01 2.335019999999999873e-01 -8.800799999999999734e-01 -1.557625000000000037e+00 5.650730000000000475e-01 4.626899999999999763e-02 -2.822470000000000256e-01
-6.352719999999999478e-01 -1.184110999999999914e+00 9.628579999999999917e-01 7.337200000000000666e-02 4.174309999999999965e-01 2.847799999999999776e-01 3.103906999999999972e+00 3.259870000000000267e-01 2.735459000000000085e+00 -2.979883000000000060e+00 6.625269999999999770e-01 -3.667625999999999831e+00 1.486669999999999936e-01 -7.879230000000000400e-01 4.961479999999999779e-01 -4.106009999999999938e-01 -1.226789999999999964e-01 -6.521639999999999660e-01 3.012349999999999750e-01 -9.993599999999999706e-02 9.030599999999999739e-02 -1.084996999999999989e+00 -2.362392999999999965e+00 -1.737330000000000041e+00 1.553680000000000061e-01 -3.122469999999999968e-01 -3.272904000000000035e+00 7.746579999999999577e-01 -4.213390000000000191e-01 2.120289999999999953e-01 5.067100000000000076e-02 2.579347999999999974e+00 3.372482000000000202e+00 5.028759999999999897e-01 1.305334999999999912e+00 1.175959999999999894e+00
4.282799999999999802e-02 -1.513399999999999988e-02 -5.235260000000000469e-01 -2.145090000000000052e-01 -8.321079999999999588e-01 1.015668000000000015e+00 6.362119999999999997e-01 7.487570000000000059e-01 2.960869999999999891e-01 -4.698789999999999911e-01 -1.030046000000000017e+00 4.992300000000000210e-02 5.118759999999999977e-01 1.643350000000000088e-01 2.931889999999999774e-01 3.234659999999999758e-01 8.450769999999999671e-01 1.982770000000000088e-01 -4.379099999999999659e-02 -1.709410000000000096e-01 1.965580000000000105e-01 -4.048220000000000152e-01 2.753539999999999877e-01 -1.863256000000000023e+00 -7.482210000000000250e-01 5.118500000000000133e-02 -2.784010000000000096e-01 2.405799999999999883e-01 5.113000000000000184e-02 2.378460000000000019e-01 1.653348999999999958e+00 -1.428218999999999905e+00 6.828700000000000048e-02 -1.527090000000000058e+00 1.340610000000000079e+00 3.093469999999999831e-01
2.895538999999999863e+00 -4.563723000000000418e+00 -1.181373999999999924e+00 -1.192371000000000070e+00 3.873079999999999856e-01 -6.297390000000000487e-01 -6.251320000000000210e-01 -1.733074999999999921e+00 -1.636012000000000022e+00 -5.475200000000000206e-02 7.944499999999999895e-01 -1.098651000000000044e+00 -3.034740000000000215e+00 4.177380999999999567e+00 3.340799999999999881e-01 -1.404740000000000100e+00 8.833929999999999838e-01 7.187059999999999560e-01 -7.164500000000000313e-01 -1.282451000000000008e+00 1.041695000000000038e+00 8.184800000000000408e-02 2.060931000000000068e+00 2.152390000000000025e+00 1.404120999999999952e+00 -1.174771999999999927e+00 3.839569999999999927e-01 8.594690000000000385e-01 1.354240000000000110e+00 -2.527391000000000165e+00 6.948050000000000059e-01 -1.606840000000000046e+00 1.484393000000000074e+00 1.092402000000000095e+00 7.031579999999999497e-01 9.579450000000000465e-01
-8.228839999999999488e-01 5.082729999999999748e-01 -6.740200000000000358e-02 2.636740000000000195e-01 -3.734190000000000009e-01 -2.554879999999999929e-01 9.800809999999999800e-01 1.086779999999999968e-01 3.231799999999999951e-02 2.785349999999999770e-01 -3.414269999999999805e-01 3.208810000000000273e-01 3.323144999999999794e+00 -4.191089999999999982e+00 5.056530000000000191e-01 -1.807000000000000012e-03 2.036280000000000034e-01 5.403470000000000217e-01 -9.819569999999999688e-01 -2.606399999999999828e-01 3.204999999999999950e-03 -9.110420000000000185e-01 -1.043309999999999932e-01 -5.026180000000000092e-01 1.079655000000000031e+00 5.459000000000000311e-03 -4.005319999999999991e-01 6.299660000000000259e-01 6.822890000000000343e-01 -2.513670000000000071e-01 -9.174569999999999670e-01 -5.750699999999999701e-01 -4.364120000000000221e-01 -2.919910999999999923e+00 4.337651000000000145e+00 5.114159999999999817e-01
-2.986010000000000053e-01 -1.034607000000000054e+00 8.174639999999999684e-01 3.593689999999999940e-01 2.186200000000000088e-01 -1.006790000000000074e+00 5.005830000000000002e-01 -7.479399999999999937e-02 -8.149680000000000257e-01 3.345060000000000255e-01 3.023600000000000176e-01 -1.128269999999999967e-01 -1.364229999999999887e-01 -1.042720000000000036e-01 -5.219390000000000418e-01 -2.107529999999999959e-01 1.329869999999999941e-01 -6.561569999999999903e-01 -3.405170000000000141e-01 1.153560000000000002e-01 8.746789999999999843e-01 -9.451749999999999874e-01 -3.187119999999999953e-01 7.008729999999999682e-01 -2.667010000000000214e-01 6.051419999999999577e-01 7.672240000000000171e-01 1.423989999999999978e-01 -3.145990000000000175e-01 -1.565570000000000017e-01 3.756760000000000099e-01 4.120440000000000214e-01 -6.202299999999999480e-01 4.856360000000000121e-01 6.047399999999999998e-02 7.292290000000000161e-01
-9.744059999999999944e-01 -1.112254000000000076e+00 -1.110289000000000081e+00 3.538379999999999859e-01 2.895860000000000101e-01 -4.826309999999999767e-01 -3.774159999999999737e-01 -1.601514000000000104e+00 1.394799999999999929e-01 4.015043000000000362e+00 2.323058000000000067e+00 3.625459999999999794e-01 1.744809999999999972e-01 -3.028710000000000013e-01 -5.368540000000000534e-01 8.285630000000000495e-01 -1.241484000000000032e+00 -8.976100000000000190e-01 -1.311156999999999906e+00 -1.355860000000000121e-01 1.006936999999999971e+00 9.440749999999999975e-01 1.514845999999999915e+00 -6.581350000000000255e-01 9.512000000000000455e-01 6.032199999999999784e-01 1.228220000000000006e-01 2.276140000000000108e-01 8.139650000000000496e-01 -1.170270000000000060e-01 -3.677764999999999951e+00 -2.592039999999999900e+00 2.376709999999999934e-01 -1.154069999999999929e+00 1.441073999999999966e+00 1.933089999999999975e+00
-1.425440000000000040e-01 1.158141000000000087e+00 1.826464000000000087e+00 3.277979999999999783e-01 -1.087205999999999895e+00 -1.203800999999999899e+00 8.681860000000000133e-01 -5.013389999999999791e-01 3.020090000000000274e-01 -4.922000000000000160e-03 1.997970000000000024e-01 -9.143980000000000441e-01 -4.343310000000000226e-01 -6.748579999999999579e-01 -1.034974999999999978e+00 -3.489630000000000232e-01 9.486780000000000213e-01 3.423430000000000084e-01 4.300979999999999803e-01 -2.970929999999999960e-01 -2.143049999999999955e-01 9.086849999999999650e-01 2.778300000000000214e-01 4.716099999999999737e-01 -3.060669999999999780e-01 -3.759390000000000231e-01 9.376330000000000497e-01 -5.119559999999999667e-01 1.322106000000000003e+00 5.579840000000000355e-01 -6.679599999999999427e-02 -8.988390000000000546e-01 -1.477762999999999938e+00 -7.191880000000000495e-01 -7.127899999999999514e-02 4.071989999999999776e-01
3.261310000000000042e-01 4.598829999999999862e-01 -3.608279999999999821e-01 3.519019999999999926e-01 -3.115430000000000144e-01 1.758589999999999876e-01 4.309239999999999737e-01 3.235250000000000070e-01 6.902460000000000262e-01 8.616449999999999942e-01 -8.080739999999999590e-01 -1.131993000000000027e+00 1.750549999999999884e-01 2.366810000000000025e-01 4.607599999999999890e-02 1.227100000000000066e-02 3.426569999999999894e-01 3.151799999999999741e-02 -6.261039999999999939e-01 -2.981480000000000241e-01 5.285889999999999755e-01 -5.110699999999999965e-02 1.894820000000000115e-01 8.466600000000000514e-02 -3.706889999999999907e-01 2.241609999999999991e-01 -8.864600000000000257e-02 -4.205479999999999774e-01 8.624840000000000284e-01 6.597009999999999819e-01 -2.844769999999999799e-01 -5.108030000000000070e-01 -6.785020000000000495e-01 -4.050039999999999751e-01 -7.103049999999999642e-01 4.331399999999999834e-02
7.253800000000000525e-02 5.245899999999999869e-02 -5.260700000000000376e-01 2.222700000000000023e-02 -5.909470000000000001e-01 7.027520000000000433e-01 4.547340000000000271e-01 6.015049999999999564e-01 -3.931099999999999872e-02 -1.088859000000000021e+00 -7.025280000000000413e-01 -4.040799999999999947e-01 2.836100000000000079e-02 -1.324480000000000102e-01 -1.410550000000000137e-01 6.772270000000000234e-01 6.251820000000000155e-01 1.693270000000000053e-01 -4.762410000000000254e-01 2.339199999999999890e-01 1.080210000000000059e-01 -3.332100000000000339e-02 -2.205940000000000123e-01 -1.208034999999999970e+00 -2.474000000000000157e-02 1.876720000000000055e-01 -3.067300000000000026e-01 -3.071899999999999978e-02 9.942700000000000149e-02 5.512580000000000258e-01 8.120009999999999728e-01 -6.437019999999999964e-01 7.444000000000000096e-03 -4.132080000000000197e-01 4.900550000000000184e-01 1.086478999999999973e+00
-4.622140000000000137e-01 1.266170000000000073e-01 1.031881999999999966e+00 -8.300680000000000280e-01 4.744410000000000016e-01 -7.518639999999999768e-01 8.714570000000000372e-01 4.681799999999999851e-01 -3.563680000000000181e-01 4.364457999999999949e+00 -5.389770000000000394e-01 -3.344254999999999978e+00 -2.162050000000000083e-01 6.570000000000000284e-01 3.638899999999999774e-02 8.614000000000000129e-03 -4.402899999999999869e-02 -4.152020000000000155e-01 7.517369999999999886e-01 -4.506040000000000045e-01 -5.331719999999999793e-01 -3.814147000000000176e+00 1.923700000000000132e-01 3.811977000000000171e+00 1.599369999999999958e-01 -2.309839999999999949e-01 -1.523650000000000004e-01 -3.331359999999999877e-01 -7.124319999999999542e-01 9.069500000000000339e-01 -3.191709999999999825e-01 1.355629999999999891e-01 2.679499999999999937e-02 -1.812610000000000054e-01 -7.714400000000000424e-02 -2.607689999999999730e-01
8.505960000000000187e-01 8.683380000000000543e-01 1.221689000000000025e+00 -1.637659999999999949e-01 1.159299999999999914e-02 8.878979999999999650e-01 -1.685010000000000119e-01 -1.135670000000000013e-01 -4.309379999999999877e-01 1.605129999999999890e-01 1.247502000000000111e+00 -9.076459999999999528e-01 5.720599999999999991e-02 6.773899999999999366e-02 -8.585030000000000161e-01 -3.785510000000000264e-01 1.291266999999999943e+00 1.555625999999999953e+00 -2.763799999999999937e-02 1.862929999999999864e-01 3.309299999999999742e-02 3.771280000000000188e-01 -1.085199999999999942e+00 8.853400000000000158e-02 -6.538260000000000183e-01 -6.005120000000000458e-01 1.182740000000000041e-01 -8.487569999999999837e-01 -1.832964999999999955e+00 -9.300709999999999811e-01 9.596399999999999375e-02 -1.501300000000000030e-02 6.058769999999999989e-01 6.996310000000000029e-01 -2.547500000000000112e-02 -1.383834000000000009e+00
-1.466520000000000046e-01 -2.323870000000000102e-01 -3.708179999999999810e-01 -5.722599999999999909e-01 -3.556170000000000164e-01 4.707450000000000245e-01 7.088839999999999586e-01 2.094300000000000050e-01 1.505380000000000051e-01 3.049149999999999916e-01 -8.456789999999999585e-01 2.581379999999999786e-01 8.130680000000000129e-01 2.902290000000000147e-01 5.330470000000000486e-01 -4.682720000000000216e-01 5.913059999999999983e-01 2.407829999999999970e-01 3.164939999999999976e-01 -4.229180000000000161e-01 1.105259999999999992e-01 -4.675549999999999984e-01 5.809870000000000312e-01 -9.565799999999999859e-01 -8.874100000000000321e-01 -1.221470000000000056e-01 -2.156949999999999978e-01 3.882680000000000020e-01 2.338639999999999886e-01 -1.477880000000000027e-01 1.054078000000000070e+00 -6.986050000000000315e-01 4.100999999999999611e-03 -1.043558999999999903e+00 7.715379999999999461e-01 -7.699599999999999500e-02
5.553529999999999855e-01 -5.984019999999999895e-01 4.005360000000000031e-01 -5.787290000000000489e-01 1.271735999999999978e+00 -4.554540000000000255e-01 5.166889999999999539e-01 -1.220992999999999995e+00 1.780549999999999911e-01 -1.251975999999999978e+00 3.880700000000000122e-02 -4.905299999999999938e-02 -5.176220000000000265e-01 -1.705019999999999869e-01 2.065440000000000054e-01 -1.189783999999999953e+00 2.187479999999999980e-01 3.818570000000000020e-01 -3.084439999999999960e-01 8.787800000000000056e-01 3.270850000000000146e-01 -4.511035999999999824e+00 -4.176575999999999844e+00 -6.127380000000000049e-01 9.671710000000000029e-01 2.530609999999999804e-01 -7.681639999999999580e-01 4.279827000000000048e+00 4.833851000000000120e+00 -1.336637999999999993e+00 1.202730999999999995e+00 5.073769999999999669e-01 3.484809999999999852e-01 8.358200000000000074e-01 -1.835887999999999964e+00 1.379488999999999965e+00
1.155883999999999912e+00 -1.160425000000000040e+00 -1.308060000000000056e-01 5.789499999999999647e-01 7.235300000000000065e-02 -6.987799999999999567e-01 1.200396999999999936e+00 5.984410000000000007e-01 -2.464649999999999896e-01 -1.548958999999999975e+00 6.674769999999999870e-01 -2.060700000000000032e-02 4.204249999999999932e-01 -1.189500000000000002e+00 -7.782529999999999726e-01 2.885170000000000234e-01 4.637729999999999908e-01 4.442949999999999955e-01 -2.949339999999999740e-01 -3.890759999999999774e-01 7.877969999999999695e-01 -5.638769999999999616e-01 4.072009999999999796e-01 -1.464999999999999939e-03 -3.507649999999999935e-01 -5.248580000000000467e-01 -2.074300000000000102e-02 3.124700000000000255e-01 -8.475810000000000288e-01 4.071409999999999751e-01 -5.401470000000000438e-01 1.299541999999999975e+00 -1.500660000000000049e-01 -6.579599999999999893e-01 6.026540000000000230e-01 4.079530000000000101e-01
-8.361469999999999736e-01 1.069425000000000070e+00 1.121390000000000026e-01 5.087490000000000068e-01 -3.310370000000000257e-01 3.813099999999999823e-02 4.255180000000000073e-01 5.144400000000000084e-01 6.218350000000000266e-01 6.962089999999999668e-01 -5.049339999999999939e-01 -1.005981999999999932e+00 7.105609999999999982e-01 7.697979999999999823e-01 1.534310000000000118e-01 8.557800000000000129e-02 6.666590000000000016e-01 -2.613299999999999998e-02 -4.767500000000000071e-01 -1.570139999999999869e-01 5.922199999999999687e-01 -2.076649999999999885e-01 -2.689719999999999889e-01 -4.040599999999999747e-01 -5.039970000000000283e-01 2.393990000000000007e-01 1.270280000000000020e-01 -9.329969999999999652e-01 -1.157829999999999970e-01 3.348269999999999857e-01 8.587010000000000476e-01 -1.221206000000000014e+00 -9.112280000000000380e-01 -3.277579999999999938e-01 -6.607760000000000300e-01 3.677929999999999811e-01
3.448039999999999994e-01 -4.233927999999999692e+00 5.181949000000000360e+00 -1.964140000000000053e-01 -3.450999999999999901e-02 1.622840000000000116e-01 -2.098260000000000125e-01 9.738609999999999767e-01 -4.089829999999999854e-01 6.276739999999999542e-01 -8.976450000000000262e-01 -1.860829999999999984e+00 1.071355999999999975e+00 -6.258199999999999874e-02 9.341129999999999711e-01 7.965710000000000290e-01 -5.499899999999999789e-01 5.989799999999999985e-02 -3.648569999999999869e-01 2.887609999999999899e-01 -6.665140000000000509e-01 6.143589999999999884e-01 4.492612000000000272e+00 -4.664100000000000357e+00 -1.238749999999999990e-01 4.195900000000000324e-02 5.974819999999999576e-01 -1.508839999999999959e+00 1.424600000000000033e-01 1.142511000000000054e+00 2.244690000000000019e-01 7.692579999999999973e-01 -4.093800000000000217e-02 -1.275420999999999916e+00 -9.302550000000000541e-01 -4.368710000000000093e-01