2.761399999999999966e-01 1.432379999999999987e+00 4.457349999999999923e+00 1.377369999999999983e+00 3.758099999999999774e-01 1.300609999999999999e+01 2.153439999999999799e+00 1.137129999999999974e+00 5.981340000000000323e+00 2.185799999999999965e-01 7.813000000000000500e-02 1.120589999999999975e+01 2.272980000000000000e+00 2.432980000000000143e+00 3.467210000000000125e+00 2.737989999999999924e+00 1.365890000000000049e+00 8.008800000000000807e+00 9.586999999999999689e-02 1.403019999999999934e+00 1.576529999999999987e+00 2.314919999999999867e+00 1.440739999999999910e+00 1.080599999999999916e+01 3.415570000000000217e+00 1.781859999999999999e+00 1.316269999999999918e+01 9.167000000000000148e-02 2.546800000000000175e-01 6.524230000000000196e+00 3.764700000000000268e-01 4.928199999999999803e-01 8.633900000000000574e+00 2.286379999999999857e+00 3.522700000000000276e-01 1.621329999999999938e+00
6.178599999999999648e-01 2.087110000000000021e+00 3.572499999999999787e+00 3.424339999999999939e+00 3.021400000000000197e-01 6.475600000000000023e+00 2.623819999999999819e+00 2.182220000000000049e+00 4.202429999999999666e+00 4.462839999999999918e+00 2.381400000000000183e+00 1.398220000000000063e+01 4.528279999999999639e+00 1.503300000000000081e+00 1.235810000000000031e+01 2.404749999999999943e+00 2.560500000000000220e+00 1.214339999999999975e+01 1.179340000000000055e+00 6.140999999999999792e-01 1.263689999999999980e+00 2.074139999999999873e+00 8.433699999999999530e-01 1.408569999999999922e+01 4.501839999999999620e+00 1.334549999999999903e+00 9.417030000000000456e+00 1.176560000000000050e+00 1.384379999999999944e+00 7.426350000000000229e+00 2.175390000000000157e+00 4.255399999999999738e-01 9.749230000000000729e+00 3.433860000000000134e+00 3.600300000000000167e-01 2.068150000000000155e+00
9.943499999999999561e-01 2.295300000000000118e-01 8.706400000000000361e+00 2.748089999999999922e+00 2.463500000000000134e-01 7.133180000000000298e+00 4.123039999999999594e+00 1.977649999999999908e+00 1.349439999999999973e+00 2.937780000000000058e+00 2.517819999999999947e+00 2.796170000000000044e+00 7.813299999999999690e-01 1.462909999999999933e+00 1.447560000000000002e+01 2.594920000000000115e+00 2.084830000000000183e+00 5.164360000000000284e+00 2.275589999999999780e+00 4.516600000000000059e-01 1.327609999999999957e+01 4.440500000000000003e-01 4.472999999999999754e-01 5.845189999999999664e+00 4.017700000000000160e-01 1.178949999999999942e+00 3.615479999999999805e+00 3.684219999999999828e+00 1.512629999999999919e+00 9.202439999999999287e+00 4.220329999999999693e+00 1.803790000000000004e+00 1.183919999999999995e+01 1.689729999999999954e+00 1.450639999999999930e+00 1.081220000000000070e+01
3.772040000000000060e+00 4.930100000000000038e-01 1.120599999999999952e+01 2.858000000000000124e-02 1.664879999999999916e+00 8.865729999999999222e+00 1.214089999999999892e+00 1.495300000000000074e+00 6.305300000000000349e-01 3.118889999999999940e+00 1.111669999999999936e+00 4.244439999999999991e+00 3.078640000000000043e+00 5.828200000000000047e-01 9.849999999999999381e-03 1.118789999999999951e+00 2.042759999999999909e+00 4.283820000000000405e+00 2.273089999999999833e+00 1.904570000000000096e+00 6.963899999999999757e+00 4.208529999999999660e+00 1.671529999999999960e+00 2.335539999999999949e+00 4.455140000000000100e+00 2.335249999999999826e+00 6.664810000000000123e+00 6.065300000000000136e-01 1.626440000000000108e+00 1.279129999999999967e+01 2.109350000000000058e+00 8.907699999999999507e-01 9.076560000000000628e+00 1.419349999999999890e+00 2.463849999999999874e+00 1.105359999999999943e+01
2.791300000000000114e+00 2.960900000000000198e-01 9.007740000000000080e+00 3.581970000000000098e+00 1.607099999999999917e-01 1.954040000000000177e+01 2.593210000000000015e+00 1.860249999999999959e+00 1.196909999999999918e+01 2.479150000000000187e+00 7.949899999999999745e-01 6.370090000000000252e+00 5.325800000000000534e-01 2.234710000000000196e+00 1.091769999999999996e+01 1.277809999999999890e+00 9.261599999999999833e-01 2.054550000000000054e+01 3.208610000000000184e+00 4.388500000000000179e-01 4.542550000000000310e+00 5.042200000000000015e-01 5.098099999999999854e-01 6.708020000000000316e+00 1.406949999999999923e+00 1.992690000000000072e+00 4.629839999999999733e+00 1.844889999999999919e+00 1.653340000000000032e+00 1.803280000000000172e+01 3.903919999999999835e+00 4.097399999999999931e-01 1.669500000000000028e+01 1.785949999999999926e+00 1.014270000000000005e+00 1.592409999999999926e+01
3.215479999999999894e+00 5.827099999999999502e-01 2.137700000000000156e+00 2.321489999999999831e+00 1.197279999999999900e+00 1.191799999999999943e-01 1.881400000000000017e-01 1.530850000000000044e+00 3.587799999999999878e-01 8.640999999999999792e-01 4.610600000000000254e-01 1.411570000000000036e+01 1.285100000000000131e-01 1.920999999999999930e-01 5.384850000000000136e+00 1.521849999999999925e+00 1.928169999999999940e+00 1.266610000000000014e+01 3.191139999999999866e+00 7.213899999999999757e-01 7.962819999999999787e+00 2.371910000000000185e+00 2.068909999999999805e+00 9.732260000000000133e+00 2.553960000000000008e+00 1.751460000000000017e+00 4.421109999999999651e+00 1.028010000000000090e+00 1.572249999999999925e+00 7.530719999999999636e+00 4.229149999999999743e+00 1.017800000000000038e+00 1.074189999999999934e+01 3.530200000000000005e-01 2.032810000000000006e+00 2.930480000000000196e+00
