2.886379354500135275e+00 2.886379112501290312e+00 5.772750766500460706e+00 1.443189329500123241e+00 4.329569272251368339e+00 4.329560951250570611e+00 4.329569776499790912e+00 1.443190088750022859e+00 1.443190581750474877e+00 -1.985001646385406015e-07 -5.680003888868657654e-07 2.886379999999937329e+00 -6.454998476730798859e-07 2.886378864001123645e+00 5.772750568000247107e+00 4.329569329500107422e+00 4.329569520751535450e+00 4.329561149750784210e+00 1.443189776499806065e+00 1.443189840249855749e+00 1.443190383250261499e+00 1.443189527999600097e+00 4.329569840249789969e+00 1.443190951250633125e+00 4.329569578000313612e+00 1.443189520751601895e+00 4.329560581750412140e+00 -3.969996415638742165e-07 -1.135998809909524949e-06 5.772749999999875037e+00 2.886379603000341465e+00 -8.874986428624604051e-07 5.772750198500088636e+00 2.886379304500093834e+00 5.772759680501613921e+00 2.886371334500894559e+00 -4.470003707477462710e-07 2.886379431999544831e+00 2.886380568000309399e+00 4.329569527999584722e+00 4.329570088749957080e+00 1.443191149750846725e+00 1.443189578000329210e+00 1.443189272251434785e+00 4.329560383250198541e+00 2.886379552999612130e+00 2.886379680499711498e+00 2.886380766500522999e+00
2.888969354490251273e+00 2.887029112856121404e+00 5.772080766806489294e+00 1.444079329811056134e+00 4.327579272727469117e+00 4.327530950920172259e+00 4.325549776595925877e+00 1.441650088299628152e+00 1.443720581170963024e+00 5.771469801245177500e+00 2.629928808201379645e-03 2.886790397429197963e+00 4.497516227975448429e-04 2.884479999922572091e+00 5.905676574246984060e-04 4.328239329385017875e+00 4.330099520438276173e+00 4.330571149763614791e+00 1.447449776207081040e+00 1.442659839648427589e+00 1.448110383438930393e+00 1.441809527804601476e+00 4.331139839959775806e+00 1.444060951464683384e+00 4.328749578354990746e+00 1.440619521062770580e+00 4.327620581188278415e+00 5.771609602657759908e+00 4.609361057977184872e-03 5.771960397828400424e+00 2.884999106415677250e+00 5.769919112872413436e+00 5.770261333847054530e+00 2.885589304739102801e+00 5.772539681063315165e+00 2.883171334403272112e+00 5.771549552698756358e+00 2.887429928293538950e+00 2.889440965124148608e+00 4.329569528035980497e+00 4.329970088952646456e+00 1.442161149829561451e+00 1.447609577479702647e+00 1.446049271846792772e+00 4.333550384116977128e+00 2.887069553458502469e+00 2.883629681194737060e+00 2.883150766006812749e+00
2.891559354479505739e+00 2.887689113210951675e+00 5.771410767114486084e+00 1.444969330121128159e+00 4.325599273203568629e+00 4.325500950591741223e+00 4.321559776692061483e+00 1.440110087851816045e+00 1.444250580593514410e+00 5.770199800989178840e+00 5.259928614243704163e-03 2.887220397859406429e+00 8.897517449402581741e-04 2.882589999844349382e+00 1.180567315757750230e-03 4.326919329270616288e+00 4.330629520127845744e+00 4.331571149777134089e+00 1.451689775915731451e+00 1.442129839049212769e+00 1.453010383626223812e+00 1.440429527610290528e+00 4.332709839671728957e+00 1.444920951678733578e+00 4.327939578707947099e+00 1.438069521374800042e+00 4.325680580630769434e+00 5.770479602316918033e+00 9.199361116152065046e-03 5.771170398653937994e+00 2.883619106830564327e+00 5.767089113243601517e+00 5.767771333195243599e+00 2.884809304977597133e+00 5.772309681621942801e+00 2.879991334304369932e+00 5.770339552398778160e+00 2.888469927587198338e+00 2.892500965245593303e+00 4.329589528071516646e+00 4.330380089157058521e+00 1.441131149911619280e+00 1.452019576961139258e+00 1.448909271447193170e+00 4.337510384983067624e+00 2.887769553914982801e+00 2.880899681888655195e+00 2.879930765517725533e+00
2.894129354467385173e+00 2.888349113560124692e+00 5.770760767421107218e+00 1.445839330428790648e+00 4.323639273675979666e+00 4.323480950265871314e+00 4.317589776788024913e+00 1.438580087407693497e+00 1.444770580019409056e+00 5.768949800734903377e+00 7.869928422007912983e-03 2.887650398287054720e+00 1.329751867256199257e-03 2.880689999764158848e+00 1.780566972122937623e-03 4.325609329156903549e+00 4.331159519820243275e+00 4.332561149791340327e+00 1.455889775626271865e+00 1.441609838454425807e+00 1.457870383812734483e+00 1.439039527417528275e+00 4.334269839384790046e+00 1.445770951890128275e+00 4.327109579059355227e+00 1.435529521683139631e+00 4.323750580073851602e+00 5.769379601977108862e+00 1.376936117494190377e-02 5.770390399477603793e+00 2.882249107242527142e+00 5.764269113609747031e+00 5.765311332546090739e+00 2.884019305215063333e+00 5.772059682171837736e+00 2.876851334200844157e+00 5.769139552102586777e+00 2.889489926887622406e+00 2.895530965363789733e+00 4.329619528107913062e+00 4.330780089362331609e+00 1.440101149992396801e+00 1.456409576446360710e+00 1.451749271051775647e+00 4.341440385843847949e+00 2.888479554365268598e+00 2.878209682575563200e+00 2.876750765037197954e+00
2.896679354452340149e+00 2.889019113901671876e+00 5.770140767728320519e+00 1.446699330734904532e+00 4.321689274145560589e+00 4.321470949941280892e+00 4.313669776884502483e+00 1.437060086971811756e+00 1.445270579450709914e+00 5.767719800481659220e+00 1.045992822952613449e-02 2.888090398712142903e+00 1.759751988884426972e-03 2.878789999681139911e+00 2.390566627800412135e-03 4.324319329044564952e+00 4.331689519518300280e+00 4.333531149806921334e+00 1.460039775340765233e+00 1.441099837869109335e+00 1.462660383997774538e+00 1.437629527228036386e+00 4.335799839098096520e+00 1.446610952094243840e+00 4.326269579405943588e+00 1.433029521986683097e+00 4.321840579524117487e+00 5.768299601639196972e+00 1.830936123348576167e-02 5.769620400296741280e+00 2.880869107652253014e+00 5.761459113971095114e+00 5.762871331898216098e+00 2.883249305449950839e+00 5.771799682713615098e+00 2.873761334096725406e+00 5.767929551810177635e+00 2.890489926193089421e+00 2.898530965477362997e+00 4.329669528142761514e+00 4.331190089567359180e+00 1.439081150076517934e+00 1.460769575936054832e+00 1.454569270661646208e+00 4.345330386698627478e+00 2.889199554809013915e+00 2.875579683259395392e+00 2.873590764569164957e+00
2.899199354434371489e+00 2.889699114234733024e+00 5.769550768035439425e+00 1.447539331037920984e+00 4.319759274609484834e+00 4.319480949619252108e+00 4.309799776980459463e+00 1.435570086546138269e+00 1.445740578891353101e+00 5.766519800229450432e+00 1.302992803765931802e-02 2.888540399135358427e+00 2.179752109824941320e-03 2.876889999595291680e+00 3.010566282790172032e-03 4.323049328934290614e+00 4.332219519223981408e+00 4.334471149823878378e+00 1.464119775060413797e+00 1.440609837297444740e+00 1.467350384181935974e+00 1.436209527042329404e+00 4.337309838816446828e+00 1.447420952293736018e+00 4.325409579749434741e+00 1.430549522284568553e+00 4.319950578976944122e+00 5.767269601303179449e+00 2.281936129436645810e-02 5.768860401113413694e+00 2.879499108056819523e+00 5.758669114323467397e+00 5.760481331254965198e+00 2.882479305684329862e+00 5.771489683241618707e+00 2.870741333982767873e+00 5.766719551524652765e+00 2.891449925508395413e+00 2.901480965583064009e+00 4.329759528176749583e+00 4.331610089775829842e+00 1.438061150165357516e+00 1.465089575434694869e+00 1.457349270283816223e+00 4.349140387542786534e+00 2.889939555242605707e+00 2.873019683933143220e+00 2.870490764116282900e+00
2.901699354412103027e+00 2.890389114556232819e+00 5.769010768343150630e+00 1.448349331337666968e+00 4.317859275068858693e+00 4.317500949301061652e+00 4.305999777077619939e+00 1.434090086132394859e+00 1.446180578338778222e+00 5.765359799977761490e+00 1.556992784333267182e-02 2.889020399555421115e+00 2.589752230938683827e-03 2.874979999506614980e+00 3.640565935124354807e-03 4.321809328826079266e+00 4.332749518938148192e+00 4.335381149842898907e+00 1.468109774786078736e+00 1.440129836737710223e+00 1.471940384361876131e+00 1.434759526862129819e+00 4.338779838538116884e+00 1.448200952483293502e+00 4.324519580087244464e+00 1.428119522575935330e+00 4.318080578437546002e+00 5.766289600971639118e+00 2.726936135758399257e-02 5.768110401921717312e+00 2.878119108456912212e+00 5.755899114667104577e+00 5.758131330614962629e+00 2.881719305915101614e+00 5.771149683752770265e+00 2.867811333863594658e+00 5.765509551246696951e+00 2.892369924835509032e+00 2.904370965680894479e+00 4.329889528210047800e+00 4.332030089985774879e+00 1.437051150256948295e+00 1.469359574940731328e+00 1.460099269915456688e+00 4.352880388377602827e+00 2.890689555665010513e+00 2.870549684597912599e+00 2.867440763681798899e+00
2.904159354384500791e+00 2.891109114866417418e+00 5.768510768654014242e+00 1.449129331632766915e+00 4.315989275519745760e+00 4.315550948986713209e+00 4.302279777175807673e+00 1.432630085733410441e+00 1.446580577795640421e+00 5.764249799728827561e+00 1.806992765134286111e-02 2.889510399971050969e+00 2.979752349989286259e-03 2.873069999410312381e+00 4.300565586083110112e-03 4.320609328719069886e+00 4.333289518661663564e+00 4.336261149866638576e+00 1.472009774518100889e+00 1.439679836195809859e+00 1.476400384541530331e+00 1.433279526685888206e+00 4.340219838261139884e+00 1.448960952664884561e+00 4.323589580418861544e+00 1.425729522855987197e+00 4.316250577903269381e+00 5.765379600643028901e+00 3.166936142289238781e-02 5.767380402724995747e+00 2.876739108851845472e+00 5.753149115000904423e+00 5.755831329978894573e+00 2.880969306143474462e+00 5.770749684243138056e+00 2.864991333733301726e+00 5.764299550977345810e+00 2.893229924172461942e+00 2.907210965766917621e+00 4.330069528242660226e+00 4.332450090198058490e+00 1.436051150351977501e+00 1.473569574457088693e+00 1.462809269561609948e+00 4.356520389200420951e+00 2.891469556072443048e+00 2.868189685249521226e+00 2.864470763271024456e+00
2.906589354351911236e+00 2.891839115162212259e+00 5.768070768964783213e+00 1.449869331925457194e+00 4.314139275965220399e+00 4.313610948673549217e+00 4.298649777275714179e+00 1.431190085352013641e+00 1.446930577262628193e+00 5.763189799480414877e+00 2.053992745775416393e-02 2.890030400384215437e+00 3.349752468525403482e-03 2.871149999308352463e+00 4.980565233698573679e-03 4.319449328615498018e+00 4.333829518398461644e+00 4.337091149893128161e+00 1.475789774257168174e+00 1.439259835671127918e+00 1.480720384718835714e+00 1.431769526517562729e+00 4.341599837989450705e+00 1.449680952832605119e+00 4.322629580743937439e+00 1.423399523129520228e+00 4.314440577378737096e+00 5.764529600318895497e+00 3.600936149139856435e-02 5.766660403520592837e+00 2.875349109240068923e+00 5.750429115322035045e+00 5.753591329348044070e+00 2.880239306369448027e+00 5.770289684713580947e+00 2.862281333592576971e+00 5.763089550716252063e+00 2.894049923523189793e+00 2.909980965845068823e+00 4.330299528273722665e+00 4.332880090412679408e+00 1.435061150452413115e+00 1.477729573983767253e+00 1.465479269223137315e+00 4.360060390011929243e+00 2.892279556464730561e+00 2.865949685889938259e+00 2.861570762885927710e+00
2.908979354312613452e+00 2.892599115442755497e+00 5.767690769278703833e+00 1.450579332213328243e+00 4.312329276404177847e+00 4.311690948366193155e+00 4.295109777376649340e+00 1.429770084986237144e+00 1.447240576739740936e+00 5.762189799233382814e+00 2.296992726342752048e-02 2.890580400793635540e+00 3.699752585859322155e-03 2.869219999198767468e+00 5.690564877970745970e-03 4.318329328514677989e+00 4.334369518146575118e+00 4.337881149922369062e+00 1.479439774005517183e+00 1.438859835166739654e+00 1.484880384891136273e+00 1.430209526353883431e+00 4.342949837719362272e+00 1.450370952990983175e+00 4.321619581061956872e+00 1.421119523390877326e+00 4.312670576860604399e+00 5.763759599997692717e+00 4.029936156285653798e-02 5.765960404311852194e+00 2.873959109623304808e+00 5.747719115631359621e+00 5.751411328719160387e+00 2.879509306591819584e+00 5.769759685156473417e+00 2.859711333438077041e+00 5.761859550466686741e+00 2.894799922887938415e+00 2.912670965908069842e+00 4.330599528303925361e+00 4.333320090633325350e+00 1.434071150559630414e+00 1.481829573522314591e+00 1.468099268901145393e+00 4.363490390809471542e+00 2.893119556838775974e+00 2.863849686515226978e+00 2.858760762530444310e+00
2.911329354265230318e+00 2.893389115704112502e+00 5.767390769595778011e+00 1.451249332496553635e+00 4.310549276833786969e+00 4.309800948061990766e+00 4.291669777480674242e+00 1.428370084642844651e+00 1.447480576227666571e+00 5.761259798987556913e+00 2.536992707119173004e-02 2.891150401201965536e+00 4.029752703539694544e-03 2.867269999083524201e+00 6.420564516931763152e-03 4.317259328417122788e+00 4.334919517910800657e+00 4.338611149957015911e+00 1.482959773764523037e+00 1.438479834686580805e+00 1.488860385058432545e+00 1.428599526198808700e+00 4.344239837454806796e+00 1.451010953134115766e+00 4.320549581371198933e+00 1.418909523639197312e+00 4.310940576352122022e+00 5.763079599679591603e+00 4.452936163615937859e-02 5.765290405097495352e+00 2.872549109998457251e+00 5.745039115923218809e+00 5.749311328094806051e+00 2.878809306812312840e+00 5.769139685574399046e+00 2.857281333267929213e+00 5.760629550227961637e+00 2.895479922266462225e+00 2.915290965957296088e+00 4.330959528331717934e+00 4.333780090857170642e+00 1.433091150674909997e+00 1.485869573071871397e+00 1.470679268595634470e+00 4.366810391595017826e+00 2.893999557194404826e+00 2.861899687128216740e+00 2.856030762207229845e+00
2.913649354210450682e+00 2.894209115949112121e+00 5.767160769916691798e+00 1.451869332776508426e+00 4.308799277257123528e+00 4.307920947760252695e+00 4.288329777587105873e+00 1.426990084319869068e+00 1.447660575726404941e+00 5.760389798743285716e+00 2.771992687625013038e-02 2.891760401604582587e+00 4.329752821052038070e-03 2.865289998957826878e+00 7.190564147926046396e-03 4.316239328322318158e+00 4.335469517687201346e+00 4.339301149995101525e+00 1.486329773531775977e+00 1.438139834226961566e+00 1.492670385223284324e+00 1.426929526051650132e+00 4.345469837192958096e+00 1.451610953261315062e+00 4.319419581674073250e+00 1.416749523876447814e+00 4.309240575849351274e+00 5.762479599365967431e+00 4.869936171438189049e-02 5.764630405876832064e+00 2.871129110367073078e+00 5.742379116200440947e+00 5.747281327473698909e+00 2.878109307030237929e+00 5.768429685962805920e+00 2.855001333080071202e+00 5.759379550001625603e+00 2.896079921659007184e+00 2.917830965989403502e+00 4.331419528358649629e+00 4.334250091089623780e+00 1.432111150799034283e+00 1.489849572634499353e+00 1.473219268312508046e+00 4.369990392368563903e+00 2.894929557528520547e+00 2.860119687725832804e+00 2.853400761920907414e+00
2.915929354145176955e+00 2.895079116172956546e+00 5.767020770244695171e+00 1.452449333053365876e+00 4.307069277673081231e+00 4.306060947459699584e+00 4.285099777697490175e+00 1.425620084020138956e+00 1.447770575234676116e+00 5.759589798498844893e+00 3.003992667946365699e-02 2.892410402006109660e+00 4.609752936674468837e-03 2.863299998822536718e+00 8.000563775577038822e-03 4.315279328229919109e+00 4.336039517480575256e+00 4.339931150041249630e+00 1.489549773308652014e+00 1.437839833791817679e+00 1.496290385385692145e+00 1.425189525911547017e+00 4.346649836932954258e+00 1.452170953373860929e+00 4.318209581968857513e+00 1.414659524100907451e+00 4.307570575354854547e+00 5.761989599054412103e+00 5.282936179813901151e-02 5.763990406655860710e+00 2.869689110730874848e+00 5.739719116462167037e+00 5.745321326851215993e+00 2.877439307246630218e+00 5.767609686322310303e+00 2.852881332872629461e+00 5.758119549787505953e+00 2.896609921068401761e+00 2.920280966007048118e+00 4.331959528383171332e+00 4.334740091326997558e+00 1.431141150932596418e+00 1.493779572209685380e+00 1.475709268048691181e+00 4.373050393128834479e+00 2.895909557839575488e+00 2.858519688306106588e+00 2.850880761673444841e+00
2.918189354070957364e+00 2.895989116379335648e+00 5.766960770579194318e+00 1.452979333326952727e+00 4.305369278082765483e+00 4.304210947161611678e+00 4.281969777811827527e+00 1.424260083742793004e+00 1.447810574751792423e+00 5.758879798254925575e+00 3.232992648452205631e-02 2.893090402407922923e+00 4.859753054538464533e-03 2.861259998678759686e+00 8.840563391325568371e-03 4.314379328140785397e+00 4.336619517290922765e+00 4.340501150093491134e+00 1.492619773098248226e+00 1.437559833385084751e+00 1.499700385541719916e+00 1.423359525780048429e+00 4.347769836675040800e+00 1.452680953468410197e+00 4.316919582254176824e+00 1.412639524308640038e+00 4.305950574868631087e+00 5.761599598745785755e+00 5.690936188656982309e-02 5.763370407431929188e+00 2.868219111087626949e+00 5.737069116703599647e+00 5.743451326228638187e+00 2.876779307460802126e+00 5.766679686649220926e+00 2.850931332644229155e+00 5.756839549586810101e+00 2.897039920489850040e+00 2.922660966003639338e+00 4.332599528405971512e+00 4.335250091572980580e+00 1.430171151076971015e+00 1.497649571797942336e+00 1.478159267807258592e+00 4.375970393877105735e+00 2.896949558128081748e+00 2.857109688873835651e+00 2.848450761467498538e+00
2.920419353984007316e+00 2.896959116561486081e+00 5.767010770923437057e+00 1.453459333598817516e+00 4.303689278488145753e+00 4.302360946864021152e+00 4.278959777931492070e+00 1.422910083493489131e+00 1.447760574279128853e+00 5.758239798010150068e+00 3.458992628576772199e-02 2.893820402808646719e+00 5.079753172407656080e-03 2.859179998522559885e+00 9.730562997139501069e-03 4.313549328054916643e+00 4.337209517119103630e+00 4.341011150152515263e+00 1.495519772898154853e+00 1.437319833003072977e+00 1.502910385693927875e+00 1.421449525656466317e+00 4.348829836418111938e+00 1.453150953545650381e+00 4.315529582533129016e+00 1.410669524501860117e+00 4.304360574385369453e+00 5.761319598438542577e+00 6.094936197856737348e-02 5.762780408207690108e+00 2.866719111438015943e+00 5.734429116926706094e+00 5.741661325605965871e+00 2.876129307674647695e+00 5.765609686941572498e+00 2.849161332388966184e+00 5.755519549399190637e+00 2.897389919925565049e+00 2.924950965981735873e+00 4.333349528425501695e+00 4.335790091826466686e+00 1.429211151234814237e+00 1.501489571397722766e+00 1.480579267588825632e+00 4.378760394617410512e+00 2.898049558390944469e+00 2.855909689425083720e+00 2.846130761307003265e+00
2.922629353885014769e+00 2.897989116722236691e+00 5.767160771278111220e+00 1.453879333867585499e+00 4.302029278884424990e+00 4.300530946566238910e+00 4.276039778057347363e+00 1.421560083269644670e+00 1.447620573812654854e+00 5.757699797764519012e+00 3.681992608578347342e-02 2.894600403210343842e+00 5.259753290282045621e-03 2.857059998353078001e+00 1.067056259233112314e-02 4.312789327972311959e+00 4.337809516965119627e+00 4.341461150218320242e+00 1.498249772709747463e+00 1.437119832649718321e+00 1.505900385842316336e+00 1.419419525542175542e+00 4.349829836162658836e+00 1.453560953602831107e+00 4.314029582803991403e+00 1.408769524679705620e+00 4.302800573908318604e+00 5.761159598133018811e+00 6.496936208089620912e-02 5.762190408987768464e+00 2.865179111784625032e+00 5.731769117130625979e+00 5.739951324976606095e+00 2.875499307887480427e+00 5.764399687198255684e+00 2.847581332107528507e+00 5.754179549226543067e+00 2.897629919375301011e+00 2.927160965936811632e+00 4.334229528442274493e+00 4.336370092093111417e+00 1.428241151409469056e+00 1.505289571009713834e+00 1.482969267394498969e+00 4.381410395349060849e+00 2.899239558627127789e+00 2.854939689964401506e+00 2.843910761197958603e+00
2.924819353771743291e+00 2.899089116857649806e+00 5.767430771645186027e+00 1.454249334136353156e+00 4.300369279276398338e+00 4.298700946265019418e+00 4.273229778190252404e+00 1.420200083072981290e+00 1.447390573351778009e+00 5.757239797516483293e+00 3.902992588087955683e-02 2.895440403613606772e+00 5.409753410744452991e-03 2.854869998171173595e+00 1.166056217168455304e-02 4.312109327891939792e+00 4.338439516831796183e+00 4.341841150295532081e+00 1.500809772532338160e+00 1.436959832323053021e+00 1.508680385986885142e+00 1.417279525436663024e+00 4.350759835905606110e+00 1.453930953638671753e+00 4.312399583065388065e+00 1.406939524836519961e+00 4.301290573436101106e+00 5.761139597828015546e+00 6.895936218937463724e-02 5.761630409771570704e+00 2.863589112126593506e+00 5.729099117314498280e+00 5.738321324341838725e+00 2.874889308101194807e+00 5.763019687417303416e+00 2.846201331794013356e+00 5.752789549068007879e+00 2.897769918836474723e+00 2.929290965868768915e+00 4.335239528457153213e+00 4.336980092372916928e+00 1.427261151598967936e+00 1.509069570634603563e+00 1.485329267227968542e+00 4.383910396073432914e+00 2.900509558835945079e+00 2.854199690488960162e+00 2.841800761139676279e+00
2.927009353641782941e+00 2.900279116967481308e+00 5.767830772029971520e+00 1.454549334404947603e+00 4.298719279664313220e+00 4.296860945960952805e+00 4.270529778332444515e+00 1.418820082907434887e+00 1.447050572894530207e+00 5.756889797266730113e+00 4.121992567560667231e-02 2.896330404020499127e+00 5.509753533107167832e-03 2.852609997973157174e+00 1.271056173382436802e-02 4.311519327813798874e+00 4.339099516719996608e+00 4.342151150384836455e+00 1.503189772367302668e+00 1.436839832026151287e+00 1.511230386126946490e+00 1.414989525340442089e+00 4.351629835647447209e+00 1.454240953652389479e+00 4.310639583320416968e+00 1.405159524976238306e+00 4.299810572964783972e+00 5.761249597521463706e+00 7.295936230707743275e-02 5.761080410566281174e+00 2.861949112464268197e+00 5.726399117474387346e+00 5.736791323697731038e+00 2.874289308315790326e+00 5.761469687597855049e+00 2.845021331447731505e+00 5.751349548926853572e+00 2.897779918311055081e+00 2.931330965771706154e+00 4.336409528468415431e+00 4.337640092668466174e+00 1.426271151809309412e+00 1.512849570269809041e+00 1.487689267090955836e+00 4.386260396797804439e+00 2.901869559013952049e+00 2.853729690999621482e+00 2.839800761140715224e+00
2.929189353495133652e+00 2.901559117050869219e+00 5.768360772431779360e+00 1.454779334674402902e+00 4.297059280046202190e+00 4.295020945650104949e+00 4.267919778484785098e+00 1.417410082771283220e+00 1.446600572437568344e+00 5.756639797012163662e+00 4.340992546516814210e-02 2.897290404434268662e+00 5.579753659779782687e-03 2.850259997762718989e+00 1.381056127619026061e-02 4.311019327738063289e+00 4.339779516627753964e+00 4.342401150484264782e+00 1.505389772214467570e+00 1.436769831760981830e+00 1.513540386264468518e+00 1.412549525254547023e+00 4.352419835386212910e+00 1.454500953640048611e+00 4.308709583567355672e+00 1.403449525095417094e+00 4.298360572495550258e+00 5.761509597214912404e+00 7.695936243769431473e-02 5.760530411371307835e+00 2.860229112799196116e+00 5.723659117609678049e+00 5.735351323040250193e+00 2.873699308534024333e+00 5.759709687737943007e+00 2.844051331060812426e+00 5.749859548800843712e+00 2.897669917795106187e+00 2.933300965647590353e+00 4.337749528476058991e+00 4.338350092980618022e+00 1.425271152041181377e+00 1.516619569915503174e+00 1.490039266980632382e+00 4.388470397519520283e+00 2.903339559161148387e+00 2.853529691498105425e+00 2.837910761202452115e+00
2.931369353328871163e+00 2.902939117102771860e+00 5.769050772853265840e+00 1.454939334946094398e+00 4.295389280426000767e+00 4.293160945332475720e+00 4.265409778647959449e+00 1.415970082667355356e+00 1.446030571981579582e+00 5.756509796753643826e+00 4.558992525128585660e-02 2.898320404854322963e+00 5.599753789560098574e-03 2.847809997532232629e+00 1.499056079543894734e-02 4.310619327663696154e+00 4.340499516557892790e+00 4.342581150598442186e+00 1.507399772075381561e+00 1.436739831528650813e+00 1.515600386396795063e+00 1.409929525178804877e+00 4.353139835121289103e+00 1.454700953601554270e+00 4.306599583806379528e+00 1.401799525191227636e+00 4.296950572025745707e+00 5.761929596905262407e+00 8.097936257815054051e-02 5.760000412191272012e+00 2.858439113131551856e+00 5.720869117719263208e+00 5.734011322368114172e+00 2.873129308755381750e+00 5.757729687834490129e+00 2.843311330631975498e+00 5.748299548693938554e+00 2.897409917290840298e+00 2.935180965489142313e+00 4.339269528478364890e+00 4.339130093310235914e+00 1.424261152299207245e+00 1.520409569572888531e+00 1.492389266905484790e+00 4.390510398242612133e+00 2.904939559275639738e+00 2.853629691988103900e+00 2.836120761332165063e+00
1.475039999999999907e+00 1.494890000000000052e+00 1.411620000000000097e+00 4.389289999999999914e+00 1.493179999999999952e+00 1.417990000000000084e+00 2.971639999999999837e+00 5.928189999999999849e+00 2.835399999999999920e+00 1.456150000000000055e+00 1.535600000000000076e+00 4.259240000000000137e+00 5.857870000000000132e+00 2.986800000000000122e+00 2.833410000000000206e+00 1.499390000000000001e+00 4.439779999999999838e+00 1.421259999999999968e+00 4.377939999999999721e+00 1.536589999999999900e+00 4.254559999999999675e+00 2.986689999999999845e+00 5.884369999999999656e+00 9.200000000000000278e-04 -1.404000000000000040e-02 4.508000000000000201e-02 2.836730000000000196e+00 2.948630000000000084e+00 2.948989999999999778e+00 4.000000000000000327e-05 4.407750000000000057e+00 4.480100000000000193e+00 4.252930000000000099e+00 4.419760000000000133e+00 4.435679999999999623e+00 1.418739999999999890e+00 5.873490000000000322e+00 2.936679999999999957e+00 7.579999999999999932e-03 -3.359999999999999792e-02 8.858000000000000596e-02 5.668239999999999945e+00 2.936350000000000016e+00 2.988550000000000040e+00 2.835500000000000131e+00 1.485440000000000094e+00 4.481390000000000207e+00 4.249360000000000248e+00
1.474920000000000009e+00 1.495549999999999935e+00 1.413300000000000001e+00 4.388320000000000221e+00 1.489900000000000002e+00 1.421540000000000026e+00 2.973129999999999828e+00 5.924730000000000274e+00 2.834979999999999833e+00 1.457049999999999956e+00 1.535590000000000011e+00 4.263939999999999841e+00 1.595999999999999849e-02 2.989059999999999828e+00 2.831739999999999924e+00 1.500439999999999996e+00 4.437899999999999956e+00 1.419740000000000002e+00 4.375969999999999693e+00 1.538000000000000034e+00 4.252180000000000071e+00 2.888110000000000177e+00 9.073000000000000509e-02 5.666360000000000063e+00 -1.655999999999999833e-02 4.778999999999999915e-02 2.836510000000000087e+00 2.915140000000000065e+00 3.036840000000000206e+00 5.664769999999999861e+00 4.405389999999999695e+00 4.477809999999999846e+00 4.251249999999999751e+00 4.422060000000000102e+00 4.437520000000000131e+00 1.425650000000000084e+00 5.870409999999999684e+00 2.937549999999999883e+00 7.190000000000000210e-03 -3.048000000000000015e-02 8.873000000000000331e-02 5.665890000000000093e+00 2.937800000000000189e+00 2.988329999999999931e+00 2.834719999999999906e+00 1.485880000000000090e+00 4.480680000000000440e+00 4.250250000000000306e+00
1.474779999999999980e+00 1.496199999999999974e+00 1.415010000000000101e+00 4.387340000000000018e+00 1.486629999999999896e+00 1.425070000000000059e+00 2.974600000000000133e+00 5.921289999999999942e+00 2.834569999999999812e+00 1.457920000000000105e+00 1.535609999999999919e+00 4.268589999999999662e+00 1.717000000000000123e-02 2.991289999999999782e+00 2.830099999999999838e+00 1.501479999999999926e+00 4.436020000000000074e+00 1.418209999999999971e+00 4.373990000000000045e+00 1.539420000000000011e+00 4.249810000000000088e+00 2.887100000000000222e+00 9.338000000000000467e-02 5.663560000000000372e+00 5.824029999999999596e+00 5.050999999999999934e-02 2.836289999999999978e+00 2.915290000000000159e+00 3.036109999999999864e+00 5.661279999999999646e+00 4.403039999999999843e+00 4.475520000000000387e+00 4.249579999999999913e+00 4.424369999999999692e+00 4.439370000000000260e+00 1.432520000000000016e+00 5.867350000000000065e+00 2.938439999999999941e+00 6.790000000000000029e-03 -2.736999999999999850e-02 8.885999999999999455e-02 5.663560000000000372e+00 2.939229999999999787e+00 2.988100000000000200e+00 2.833940000000000126e+00 1.486299999999999955e+00 4.479960000000000164e+00 4.251140000000000363e+00
1.474639999999999951e+00 1.496839999999999948e+00 1.416740000000000110e+00 4.386350000000000193e+00 1.483379999999999921e+00 1.428560000000000052e+00 2.976030000000000175e+00 5.917889999999999873e+00 2.834179999999999922e+00 1.458769999999999900e+00 1.535649999999999959e+00 4.273150000000000226e+00 1.840999999999999928e-02 2.993489999999999984e+00 2.828479999999999883e+00 1.502529999999999921e+00 4.434149999999999814e+00 1.416679999999999939e+00 4.371999999999999886e+00 1.540850000000000053e+00 4.247429999999999595e+00 2.886130000000000084e+00 9.597999999999999587e-02 5.660800000000000054e+00 5.821559999999999846e+00 5.322000000000000342e-02 2.836079999999999934e+00 2.915490000000000137e+00 3.035379999999999967e+00 5.657829999999999693e+00 4.400710000000000122e+00 4.473239999999999661e+00 4.247930000000000206e+00 4.426660000000000039e+00 4.441220000000000390e+00 1.439310000000000089e+00 5.864300000000000068e+00 2.939350000000000129e+00 6.380000000000000254e-03 -2.429999999999999868e-02 8.898999999999999966e-02 5.661249999999999893e+00 2.940650000000000208e+00 2.987849999999999895e+00 2.833169999999999966e+00 1.486699999999999910e+00 4.479239999999999888e+00 4.252030000000000420e+00