-5.907500558000000268e+01
-5.907430469999999900e+01
-5.907221641999999662e+01
-5.906877246999999898e+01
-5.906402923000000271e+01
-5.905806259999999952e+01
-5.905096525999999812e+01
-5.904284621000000044e+01
-5.903382973000000078e+01
-5.902405255000000039e+01
-5.901365951999999737e+01
-5.900279914000000048e+01
-5.899162153999999703e+01
-5.898027522000000289e+01
-5.896890539999999703e+01
-5.895764985000000280e+01
-5.894665279000000169e+01
-5.893604320000000030e+01
-5.892595392999999859e+01
-5.891650410999999821e+01
-5.905318926000000346e+01
-5.905219350000000134e+01
-5.904931255999999706e+01
-5.904461546999999655e+01
-5.903821180999999996e+01
-5.903025339999999943e+01
-5.902091467000000335e+01
-5.901040385000000299e+01
-5.899894016999999735e+01
-5.898675396000000148e+01
-5.897406598999999972e+01
-5.896110156000000302e+01
-5.894807449999999704e+01
-5.893519083000000336e+01
-5.892265176000000082e+01
-5.891063542999999925e+01
-5.889931492000000191e+01
-5.888884218999999831e+01
-5.887935456999999673e+01
-5.887098061999999743e+01
-5.900039119000000198e+01
-5.899964036000000078e+01
-5.899744711000000308e+01
-5.899388181999999858e+01
-5.898900959000000199e+01
-5.898293292000000321e+01
-5.897576070000000215e+01
-5.896762652999999688e+01
-5.895867748999999947e+01
-5.894905889000000343e+01
-5.893891947000000187e+01
-5.892840996000000331e+01
-5.891768367000000239e+01
-5.890687058000000320e+01
-5.889610117000000145e+01
-5.888549697999999921e+01
-5.887516473000000161e+01
-5.886520534000000282e+01
-5.885571369000000175e+01
-5.884676869999999838e+01
-5.889604546999999712e+01
-5.889527843999999845e+01
-5.889298191999999688e+01
-5.888922180000000139e+01
-5.888409012999999703e+01
-5.887771928000000088e+01
-5.887025610999999969e+01
-5.886186502000000331e+01
-5.885270861000000053e+01
-5.884297246999999942e+01
-5.883282686999999811e+01
-5.882245968000000147e+01
-5.881203665999999686e+01
-5.880170952000000284e+01
-5.879163613000000055e+01
-5.878194458000000111e+01
-5.877276214999999837e+01
-5.876420224000000303e+01
-5.875636827999999667e+01
-5.874935447000000011e+01
-5.892793366000000077e+01
-5.892680863999999730e+01
-5.892450038999999862e+01
-5.892103425999999899e+01
-5.891646364999999719e+01
-5.891084650999999894e+01
-5.890426312000000308e+01
-5.889678674999999686e+01
-5.888852004000000306e+01
-5.887956222999999767e+01
-5.887001966999999780e+01
-5.885999162000000240e+01
-5.884958756999999707e+01
-5.883890239000000122e+01
-5.882805220000000190e+01
-5.881712179000000162e+01
-5.880621707000000242e+01
-5.879541514999999663e+01
-5.878481338999999650e+01
-5.877449246999999843e+01
-5.900812006999999682e+01
-5.900825620999999899e+01
-5.900686370999999752e+01
-5.900396888000000217e+01
-5.899961900000000270e+01
-5.899390140999999943e+01
-5.898691094000000135e+01
-5.897876621000000341e+01
-5.896960925999999859e+01
-5.895960009000000213e+01
-5.894886658000000068e+01
-5.893758665000000008e+01
-5.892591894000000252e+01
-5.891400289999999984e+01
-5.890201823000000303e+01
-5.889008413999999902e+01
-5.887834823000000029e+01
-5.886694004000000291e+01
-5.885597540999999921e+01
-5.884559485999999850e+01
-5.898653327000000246e+01
-5.898581996000000061e+01
-5.898347103999999774e+01
-5.897953317000000339e+01
-5.897410072000000270e+01
-5.896727544000000165e+01
-5.895919770999999798e+01
-5.895002318000000230e+01
-5.893992990999999648e+01
-5.892910916999999671e+01
-5.891775188999999813e+01
-5.890605364999999694e+01
-5.889420004000000120e+01
-5.888237793999999781e+01
-5.887076073000000065e+01
-5.885951735999999812e+01
-5.884880268999999942e+01
-5.883875875999999749e+01
-5.882952088999999773e+01
-5.882122198999999796e+01
-5.895652512000000200e+01
-5.895610645000000005e+01
-5.895363254000000097e+01
-5.894917030999999952e+01
-5.894286452000000054e+01
-5.893488114000000166e+01
-5.892541247999999854e+01
-5.891469247999999936e+01
-5.890295031000000137e+01
-5.889042563000000285e+01
-5.887736138000000352e+01
-5.886399326000000087e+01
-5.885053245999999660e+01
-5.883719363000000158e+01
-5.882415114999999872e+01
-5.881158039999999687e+01
-5.879963164000000120e+01
-5.878844300000000089e+01
-5.877812047999999834e+01
-5.876875807999999779e+01
-5.890069907000000171e+01
-5.890036580000000299e+01
-5.889912681999999933e+01
-5.889699916000000002e+01
-5.889403551000000192e+01
-5.889026619999999923e+01
-5.888574283999999892e+01
-5.888055826000000081e+01
-5.887476940999999897e+01
-5.886844638000000174e+01
-5.886169298000000083e+01
-5.885459654000000285e+01
-5.884723970999999665e+01
-5.883971614000000017e+01
-5.883211457000000166e+01
-5.882452151999999757e+01
-5.881703269999999861e+01
-5.880973541000000182e+01
-5.880271477000000147e+01
-5.879604376999999715e+01
-5.901623228999999782e+01
-5.901537440999999973e+01
-5.901297981999999820e+01
-5.900909927000000010e+01
-5.900380146999999909e+01
-5.899717542999999864e+01
-5.898934109000000348e+01
-5.898040347999999966e+01
-5.897051018999999883e+01
-5.895978931999999872e+01
-5.894838349999999849e+01
-5.893642243000000036e+01
-5.892404641000000254e+01
-5.891138646000000278e+01
-5.889856484999999964e+01
-5.888569282000000271e+01
-5.887287798999999922e+01
-5.886022056000000191e+01
-5.884781842999999668e+01
-5.883576327000000106e+01
-5.901367152000000260e+01
-5.901220945000000029e+01
-5.900938648000000342e+01
-5.900525918999999675e+01
-5.899990097999999961e+01
-5.899342443999999830e+01
-5.898594442000000271e+01
-5.897759117999999745e+01
-5.896849178000000080e+01
-5.895879425999999768e+01
-5.894863741999999718e+01
-5.893815630000000283e+01
-5.892748860999999749e+01
-5.891675218000000314e+01
-5.890607243000000182e+01
-5.889556979000000325e+01
-5.888534604000000172e+01
-5.887550928999999655e+01
-5.886615514999999732e+01
-5.885735738999999711e+01
-5.891177274999999725e+01
-5.891140741000000247e+01
-5.890991127000000205e+01
-5.890732358999999718e+01
-5.890369382000000087e+01
-5.889908273000000349e+01
-5.889357280000000117e+01
-5.888724586000000016e+01
-5.888021368999999794e+01
-5.887254762999999969e+01
-5.886437278999999734e+01
-5.885576231000000291e+01
-5.884683195000000211e+01
-5.883766820999999680e+01
-5.882835893000000027e+01
-5.881897628000000111e+01
-5.880961174000000113e+01
-5.880033739999999653e+01
-5.879120215999999743e+01
-5.878228708000000324e+01
-5.897321069000000193e+01
-5.897267836999999702e+01
-5.897013276999999931e+01
-5.896563893999999806e+01
-5.895930212999999753e+01
-5.895127508000000205e+01
-5.894174951000000107e+01
-5.893095961000000216e+01
-5.891914545000000203e+01
-5.890656771999999819e+01
-5.889349442999999695e+01
-5.888019663000000037e+01
-5.886692445999999990e+01
-5.885394188000000071e+01
-5.884148524999999808e+01
-5.882976980000000111e+01
-5.881902103000000182e+01
-5.880943691000000229e+01
-5.880118731999999682e+01
-5.879442762000000045e+01
-5.905697311000000127e+01
-5.905555410000000194e+01
-5.905218382999999704e+01
-5.904693771000000169e+01
-5.903994355999999755e+01
-5.903136252000000184e+01
-5.902137927999999789e+01
-5.901019309000000135e+01
-5.899803809000000143e+01
-5.898512449999999774e+01
-5.897169071999999801e+01
-5.895795986000000255e+01
-5.894414642000000271e+01
-5.893045688000000126e+01
-5.891708197999999896e+01
-5.890421979999999991e+01
-5.889202209999999837e+01
-5.888065095999999699e+01
-5.887023852000000090e+01
-5.886091480999999703e+01
-5.903704441000000003e+01
-5.903626538999999696e+01
-5.903403040999999973e+01
-5.903040286000000236e+01
-5.902545519000000240e+01
-5.901929177000000237e+01
-5.901201602999999807e+01
-5.900375239000000249e+01
-5.899463887999999656e+01
-5.898481639999999970e+01
-5.897443093999999775e+01
-5.896361058000000099e+01
-5.895249455999999810e+01
-5.894120868000000257e+01
-5.892987648999999806e+01
-5.891860140000000001e+01
-5.890749711000000133e+01
-5.889665417999999875e+01
-5.888615710999999919e+01
-5.887608492999999754e+01
-5.894007976000000326e+01
-5.893938416999999674e+01
-5.893713762000000145e+01
-5.893340863000000240e+01
-5.892827651999999716e+01
-5.892187419999999776e+01
-5.891435812999999655e+01
-5.890589342999999900e+01
-5.889666401000000207e+01
-5.888683749999999861e+01
-5.887661225000000087e+01
-5.886617340000000098e+01
-5.885569057000000015e+01
-5.884533310999999856e+01
-5.883525758999999766e+01
-5.882561374000000143e+01
-5.881652348000000075e+01
-5.880811348000000294e+01
-5.880049212000000125e+01
-5.879373229000000123e+01
-5.903694334000000055e+01
-5.903584153999999984e+01
-5.903264441000000318e+01
-5.902742426999999736e+01
-5.902030380000000065e+01
-5.901145249999999720e+01
-5.900108687000000174e+01
-5.898944301000000223e+01
-5.897678741000000002e+01
-5.896335726000000221e+01
-5.894942732999999890e+01
-5.893524682000000325e+01
-5.892107423000000210e+01
-5.890714154999999863e+01
-5.889367320000000205e+01
-5.888088016999999752e+01
-5.886894396000000285e+01
-5.885804784999999839e+01
-5.884833000999999797e+01
-5.883992580999999689e+01
-5.893293617999999867e+01
-5.893214351000000306e+01
-5.892972762000000131e+01
-5.892576537000000059e+01
-5.892037381000000096e+01
-5.891371936000000176e+01
-5.890598126999999806e+01
-5.889736580999999660e+01
-5.888809767000000051e+01
-5.887840650999999781e+01
-5.886852395999999743e+01
-5.885867060999999723e+01
-5.884908237999999869e+01
-5.883994667000000334e+01
-5.883145644999999746e+01
-5.882379173999999722e+01
-5.881708800999999909e+01
-5.881148945999999711e+01
-5.880709488000000107e+01
-5.880398573000000084e+01
-5.902492553999999814e+01
-5.902398668000000015e+01
-5.902145687000000152e+01
-5.901736677000000242e+01
-5.901177842999999967e+01
-5.900476679999999874e+01
-5.899644025999999997e+01
-5.898692393000000322e+01
-5.897634638000000251e+01
-5.896488028000000270e+01
-5.895265709000000243e+01
-5.893983364000000336e+01
-5.892656314999999978e+01
-5.891298945999999859e+01
-5.889926868999999954e+01
-5.888553015000000102e+01
-5.887190677000000250e+01
-5.885851189000000261e+01
-5.884546746000000184e+01
-5.883289101999999815e+01
-5.872351895999999982e+01
-5.872223440999999866e+01
-5.871865887999999956e+01
-5.871290050000000349e+01
-5.870509243000000055e+01
-5.869544926999999745e+01
-5.868425390000000164e+01
-5.867177762000000030e+01
-5.865833995999999928e+01
-5.864424566999999655e+01
-5.862983272000000312e+01
-5.861540884000000062e+01
-5.860128136000000154e+01
-5.858773859000000073e+01
-5.857503472999999872e+01
-5.856341102999999748e+01
-5.855309368000000347e+01
-5.854425985000000310e+01
-5.853710541000000234e+01
-5.853173959000000082e+01
-5.898153390000000229e+01
-5.898039404000000019e+01
-5.897744177999999948e+01
-5.897274874000000011e+01
-5.896643636000000299e+01
-5.895865964000000048e+01
-5.894959336000000150e+01
-5.893944014000000209e+01
-5.892842562999999956e+01
-5.891677974000000262e+01
-5.890471662000000208e+01
-5.889246329000000202e+01
-5.888023007999999692e+01
-5.886821734000000106e+01
-5.885661128999999647e+01
-5.884558435999999659e+01
-5.883528525999999914e+01
-5.882584761999999756e+01
-5.881738537999999750e+01
-5.880998218999999949e+01
-5.900615264000000337e+01
-5.900574398999999914e+01
-5.900379599000000042e+01
-5.900032343000000168e+01
-5.899538978999999728e+01
-5.898907115000000090e+01
-5.898148669999999782e+01
-5.897274153000000041e+01
-5.896298165000000324e+01
-5.895236797999999823e+01
-5.894103848999999684e+01
-5.892915431000000126e+01
-5.891688583999999906e+01
-5.890440224000000313e+01
-5.889184969000000081e+01
-5.887938160000000209e+01
-5.886715315000000004e+01
-5.885530396000000053e+01
-5.884398668000000043e+01
-5.883332708999999738e+01
-5.900718638000000027e+01
-5.900611222999999939e+01
-5.900350704000000235e+01
-5.899942733000000317e+01
-5.899396980000000212e+01
-5.898725569999999863e+01
-5.897944159000000042e+01
-5.897066766999999743e+01
-5.896109419999999801e+01
-5.895089701999999932e+01
-5.894023379000000062e+01
-5.892926931000000224e+01
-5.891816380000000208e+01
-5.890706301000000167e+01
-5.889610831000000246e+01
-5.888542770000000104e+01
-5.887513700000000227e+01
-5.886535122000000086e+01
-5.885617872000000261e+01
-5.884770082000000002e+01
-5.889258525000000333e+01
-5.889159735999999867e+01
-5.888885063000000031e+01
-5.888443988000000218e+01
-5.887847396000000089e+01
-5.887111094000000122e+01
-5.886253587000000209e+01
-5.885295476999999664e+01
-5.884258265999999793e+01
-5.883163574000000295e+01
-5.882035047000000105e+01
-5.880892641999999881e+01
-5.879758592999999678e+01
-5.878651820999999700e+01
-5.877590741000000207e+01
-5.876591193000000146e+01
-5.875669274999999914e+01
-5.874837838999999917e+01
-5.874108869999999882e+01
-5.873490995000000225e+01
-5.901764997000000079e+01
-5.901743560999999971e+01
-5.901603922000000324e+01
-5.901347815999999824e+01
-5.900980278000000112e+01
-5.900507611999999824e+01
-5.899938500999999746e+01
-5.899281881000000283e+01
-5.898549512000000306e+01
-5.897752478000000309e+01
-5.896903745000000185e+01
-5.896015743000000242e+01
-5.895102276000000074e+01
-5.894173934999999886e+01
-5.893245074000000017e+01
-5.892326589999999698e+01
-5.891429974999999786e+01
-5.890566746999999737e+01
-5.889746413000000302e+01
-5.888978912000000321e+01
-5.877633429000000120e+01
-5.877574638000000107e+01
-5.877287026999999853e+01
-5.876779736999999670e+01
-5.876067081000000059e+01
-5.875169630999999981e+01
-5.874111977999999823e+01
-5.872923328000000254e+01
-5.871634354999999772e+01
-5.870273540000000168e+01
-5.868872911999999786e+01
-5.867461406000000324e+01
-5.866067460000000011e+01
-5.864717286999999857e+01
-5.863434570999999806e+01
-5.862240300999999931e+01
-5.861152813999999722e+01
-5.860187801000000007e+01
-5.859358452000000028e+01
-5.858672846000000334e+01
-5.895202439999999910e+01
-5.895054140999999959e+01
-5.894758487000000002e+01
-5.894322566000000307e+01
-5.893752211999999702e+01
-5.893057823000000184e+01
-5.892251399999999961e+01
-5.891343851999999970e+01
-5.890349465999999978e+01
-5.889280201999999775e+01
-5.888149296999999649e+01
-5.886970106999999786e+01
-5.885754049999999893e+01
-5.884513321000000019e+01
-5.883257447999999812e+01
-5.881997594999999990e+01
-5.880742206000000039e+01
-5.879499899999999712e+01
-5.878276892000000231e+01
-5.877081141000000031e+01
-5.893266521999999696e+01
-5.893256397999999763e+01
-5.893063690999999693e+01
-5.892692612999999824e+01
-5.892151160000000232e+01
-5.891450355999999999e+01
-5.890606077999999712e+01
-5.889633798999999925e+01
-5.888552854999999653e+01
-5.887383312000000046e+01
-5.886143974000000156e+01
-5.884854682999999653e+01
-5.883535872000000211e+01
-5.882205480999999736e+01
-5.880881730000000118e+01
-5.879581078999999733e+01
-5.878317549999999869e+01
-5.877107060000000160e+01
-5.875964563000000140e+01
-5.874900257000000181e+01
-5.868262362000000110e+01
-5.868124584000000254e+01
-5.867735318999999805e+01
-5.867106711000000274e+01
-5.866258207999999996e+01
-5.865214456999999726e+01
-5.864004683999999656e+01
-5.862660885999999749e+01
-5.861217222999999876e+01
-5.859708119999999809e+01
-5.858166786000000315e+01
-5.856625481999999749e+01
-5.855114165999999898e+01
-5.853660978999999998e+01
-5.852289997999999827e+01
-5.851026052000000277e+01
-5.849889913999999891e+01
-5.848898739999999918e+01
-5.848067085000000276e+01
-5.847406443999999937e+01
-5.895340843999999692e+01
-5.895278821000000136e+01
-5.895060983999999848e+01
-5.894691222000000153e+01
-5.894175395999999978e+01
-5.893521442000000121e+01
-5.892740670999999963e+01
-5.891844377999999693e+01
-5.890845989000000316e+01
-5.889758805999999680e+01
-5.888595839999999981e+01
-5.887372529999999671e+01
-5.886102659000000159e+01
-5.884798755999999997e+01
-5.883473934999999955e+01
-5.882139951999999994e+01
-5.880808810999999992e+01
-5.879490353999999996e+01
-5.878193927000000230e+01
-5.876928570999999835e+01
-5.900136812000000219e+01
-5.900142997999999750e+01
-5.899958589999999958e+01
-5.899587348000000020e+01
-5.899035821999999740e+01
-5.898317689000000286e+01
-5.897447693000000157e+01
-5.896444619999999759e+01
-5.895328394999999944e+01
-5.894122906999999856e+01
-5.892849672999999910e+01
-5.891532001000000207e+01
-5.890192946999999890e+01
-5.888854520000000292e+01
-5.887538820000000328e+01
-5.886265172000000234e+01
-5.885052663999999822e+01
-5.883919176999999934e+01
-5.882880222000000003e+01
-5.881948772999999875e+01
-5.898513729999999811e+01
-5.898414121999999793e+01
-5.898189874999999915e+01
-5.897843018999999742e+01
-5.897380550999999826e+01
-5.896809935999999652e+01
-5.896141000000000076e+01
-5.895384612000000146e+01
-5.894552729000000113e+01
-5.893657318000000345e+01
-5.892709009000000009e+01
-5.891722541000000035e+01
-5.890709414999999893e+01
-5.889681708999999898e+01
-5.888651662000000186e+01
-5.887628913000000352e+01
-5.886625188000000009e+01
-5.885649965999999722e+01
-5.884713383999999792e+01
-5.883824917999999826e+01
-5.894566787000000119e+01
-5.894450953999999854e+01
-5.894195954999999998e+01
-5.893807774999999793e+01
-5.893293779999999771e+01
-5.892663388999999796e+01
-5.891928949999999787e+01
-5.891101218000000017e+01
-5.890193404000000044e+01
-5.889218369000000308e+01
-5.888188827999999830e+01
-5.887116994000000147e+01
-5.886014759999999768e+01
-5.884893035000000339e+01
-5.883763326999999776e+01
-5.882634485999999896e+01
-5.881515678000000236e+01
-5.880413985999999937e+01
-5.879336389000000196e+01
-5.878288562000000184e+01
-5.894945719999999767e+01
-5.894822033999999888e+01
-5.894526084999999682e+01
-5.894065506999999826e+01
-5.893452477999999672e+01
-5.892697926000000308e+01
-5.891819034000000244e+01
-5.890832972999999839e+01
-5.889758393999999697e+01
-5.888614208999999988e+01
-5.887417236999999659e+01
-5.886185508999999882e+01
-5.884936754000000292e+01
-5.883685144999999750e+01
-5.882446451999999937e+01
-5.881233934000000119e+01
-5.880059442000000303e+01
-5.878933881999999755e+01
-5.877865729999999900e+01
-5.876864439999999945e+01
-5.894117116999999695e+01
-5.894081545000000233e+01
-5.893909821999999821e+01
-5.893602823999999885e+01
-5.893165803000000125e+01
-5.892605836999999980e+01
-5.891930775000000153e+01
-5.891151065999999759e+01
-5.890277133000000021e+01
-5.889320130000000120e+01
-5.888292622000000165e+01
-5.887207464000000101e+01
-5.886075207999999748e+01
-5.884907657000000114e+01
-5.883715924999999913e+01
-5.882510465000000011e+01
-5.881300215000000264e+01
-5.880093366999999915e+01
-5.878899125000000225e+01
-5.877725227999999902e+01
-5.898306426999999985e+01
-5.898222807999999873e+01
-5.897983706000000126e+01
-5.897594578000000354e+01
-5.897062520000000063e+01
-5.896398047999999648e+01
-5.895614581000000243e+01
-5.894725826999999896e+01
-5.893747457999999995e+01
-5.892696420000000046e+01
-5.891588907999999947e+01
-5.890440802999999903e+01
-5.889268083000000331e+01
-5.888086236000000184e+01
-5.886909991999999647e+01
-5.885753498999999778e+01
-5.884628769999999776e+01
-5.883547458999999691e+01
-5.882522457000000315e+01
-5.881562603999999794e+01
-5.882068284000000347e+01
-5.882015068999999841e+01
-5.881854840999999823e+01
-5.881591219999999964e+01
-5.881228147000000206e+01
-5.880771665000000326e+01
-5.880227977999999922e+01
-5.879605709999999874e+01
-5.878913297999999799e+01
-5.878159517999999650e+01
-5.877353215000000120e+01
-5.876503764999999646e+01
-5.875620930000000186e+01
-5.874712960000000095e+01
-5.873789305999999755e+01
-5.872858388000000218e+01
-5.871926918999999856e+01
-5.871003249999999696e+01
-5.870093682000000257e+01
-5.869204119999999847e+01
-5.893049484000000149e+01
-5.892954801999999859e+01
-5.892727639000000295e+01
-5.892371379000000076e+01
-5.891891479000000231e+01
-5.891295545999999916e+01
-5.890591380000000044e+01
-5.889789028999999942e+01
-5.888899740000000094e+01
-5.887934837000000243e+01
-5.886905361000000170e+01
-5.885823317999999915e+01
-5.884699355000000054e+01
-5.883544241999999969e+01
-5.882368480000000233e+01
-5.881182098000000025e+01
-5.879994159000000309e+01
-5.878813380999999794e+01
-5.877647308000000237e+01
-5.876504871000000207e+01
-5.902723756999999694e+01
-5.902602129000000275e+01
-5.902319348999999704e+01
-5.901882102999999802e+01
-5.901299918000000133e+01
-5.900585528999999951e+01
-5.899756304000000284e+01
-5.898828495000000061e+01
-5.897820034000000078e+01
-5.896752130000000136e+01
-5.895644941999999844e+01
-5.894518847999999878e+01
-5.893394150999999681e+01
-5.892290567999999951e+01
-5.891226340000000050e+01
-5.890218898999999908e+01
-5.889284959999999813e+01
-5.888441820999999976e+01
-5.887702570999999807e+01
-5.887080619999999698e+01
-5.901442152999999990e+01
-5.901334631000000286e+01
-5.901089166999999946e+01
-5.900710978000000040e+01
-5.900207507999999734e+01
-5.899589215999999681e+01
-5.898867451000000273e+01
-5.898055362000000201e+01
-5.897167129999999702e+01
-5.896216603999999961e+01
-5.895219757000000271e+01
-5.894189897999999772e+01
-5.893140936000000352e+01
-5.892086051999999796e+01
-5.891038632000000064e+01
-5.890010067000000049e+01
-5.889013063000000159e+01
-5.888056903999999747e+01
-5.887151331999999826e+01
-5.886305689999999657e+01
-5.881299056999999664e+01
-5.881258024000000262e+01
-5.881112109000000032e+01
-5.880865080000000233e+01
-5.880520091999999721e+01
-5.880082508000000274e+01
-5.879558288999999860e+01
-5.878955389000000054e+01
-5.878281802000000056e+01
-5.877545554000000294e+01
-5.876755521999999843e+01
-5.875920939000000232e+01
-5.875049742000000208e+01
-5.874150666999999970e+01
-5.873232523000000072e+01
-5.872302341000000325e+01
-5.871368250999999816e+01
-5.870437221000000250e+01
-5.869516287999999804e+01
-5.868611543000000097e+01
-5.890439423000000119e+01
-5.890342804000000143e+01
-5.890106372000000334e+01
-5.889733729000000295e+01
-5.889228563000000349e+01
-5.888600988999999686e+01
-5.887858975000000328e+01
-5.887014710999999778e+01
-5.886080099000000132e+01
-5.885067965999999728e+01
-5.883992823999999899e+01
-5.882867719000000051e+01
-5.881706121999999937e+01
-5.880520777000000265e+01
-5.879324485000000067e+01
-5.878129240999999894e+01
-5.876946301000000261e+01
-5.875787083000000166e+01
-5.874661078999999830e+01
-5.873578562000000147e+01
-5.888335829999999760e+01
-5.888180635999999879e+01
-5.887801094999999663e+01
-5.887210125000000005e+01
-5.886423389000000128e+01
-5.885463671000000119e+01
-5.884354013000000094e+01
-5.883124322999999833e+01
-5.881800633999999661e+01
-5.880412829000000130e+01
-5.878989900999999918e+01
-5.877558719000000309e+01
-5.876145526999999902e+01
-5.874775335999999726e+01
-5.873469172000000071e+01
-5.872247361000000154e+01
-5.871126574000000176e+01
-5.870120885000000044e+01
-5.869241957999999926e+01
-5.868497165000000138e+01
-5.902677647000000150e+01
-5.902544495000000069e+01
-5.902262435000000096e+01
-5.901835911999999951e+01
-5.901275183999999996e+01
-5.900591599999999914e+01
-5.899801048999999864e+01
-5.898919192000000322e+01
-5.897962581000000171e+01
-5.896948558999999790e+01
-5.895894538999999668e+01
-5.894815865999999716e+01
-5.893729470000000248e+01
-5.892651212999999899e+01
-5.891595430999999650e+01
-5.890575036999999980e+01
-5.889602451999999744e+01
-5.888688317999999811e+01
-5.887842764999999901e+01
-5.887073163000000164e+01
-5.889410658999999981e+01
-5.889359483999999867e+01
-5.889100685999999740e+01
-5.888640217999999749e+01
-5.887984910000000127e+01
-5.887149630999999772e+01
-5.886150719999999836e+01
-5.885010565999999699e+01
-5.883751597999999916e+01
-5.882399585000000286e+01
-5.880980399999999975e+01
-5.879520878999999667e+01
-5.878045909000000080e+01
-5.876583207000000186e+01
-5.875156862000000046e+01
-5.873791804999999755e+01
-5.872510161999999667e+01
-5.871335211000000243e+01
-5.870288223000000016e+01
-5.869390125999999697e+01
-5.898477498999999824e+01
-5.898481916000000069e+01
-5.898349937999999781e+01
-5.898083402999999691e+01
-5.897689093999999699e+01
-5.897174927999999738e+01
-5.896550074000000308e+01
-5.895827996999999954e+01
-5.895021169000000327e+01
-5.894145380999999873e+01
-5.893215988000000038e+01
-5.892248007999999970e+01
-5.891257327000000288e+01
-5.890259216999999836e+01
-5.889268358000000347e+01
-5.888297613000000297e+01
-5.887360534999999828e+01
-5.886468430000000041e+01
-5.885633534000000111e+01
-5.884865551000000039e+01
-5.895657801000000120e+01
-5.895474363999999667e+01
-5.895109894000000139e+01
-5.894573371999999978e+01
-5.893878385000000009e+01
-5.893042075000000324e+01
-5.892084739999999954e+01
-5.891026113000000208e+01
-5.889888916000000307e+01
-5.888696352000000189e+01
-5.887470615000000151e+01
-5.886233348999999748e+01
-5.885005977000000144e+01
-5.883807326000000160e+01
-5.882656333999999987e+01
-5.881568647999999655e+01
-5.880558991000000191e+01
-5.879639938999999771e+01
-5.878821100999999771e+01
-5.878111610999999925e+01
-5.896103060000000085e+01
-5.896010017999999775e+01
-5.895748815999999692e+01
-5.895324167999999787e+01
-5.894746405000000067e+01
-5.894027341000000320e+01
-5.893183487000000298e+01
-5.892231653999999708e+01
-5.891190138999999704e+01
-5.890079106999999681e+01
-5.888917370000000062e+01
-5.887725259999999849e+01
-5.886522306999999898e+01
-5.885326882999999754e+01
-5.884155896000000041e+01
-5.883026650000000046e+01
-5.881955300999999992e+01
-5.880955462000000011e+01
-5.880041002000000105e+01
-5.879222605999999729e+01
-5.903659183999999982e+01
-5.903551895999999743e+01
-5.903289749000000342e+01
-5.902876570000000100e+01
-5.902322042000000124e+01
-5.901635448999999767e+01
-5.900827730999999687e+01
-5.899912736000000280e+01
-5.898904498000000274e+01
-5.897816817999999728e+01
-5.896665297999999922e+01
-5.895462984000000262e+01
-5.894225366999999949e+01
-5.892965293999999687e+01
-5.891695233000000087e+01
-5.890427563000000077e+01
-5.889172966000000287e+01
-5.887941909999999979e+01
-5.886742086000000285e+01
-5.885583064000000064e+01
-5.894698248000000262e+01
-5.894560039999999645e+01
-5.894215037000000024e+01
-5.893670386000000150e+01
-5.892938766000000328e+01
-5.892038299000000023e+01
-5.890989555000000166e+01
-5.889817450000000321e+01
-5.888547144999999716e+01
-5.887203273000000081e+01
-5.885812302000000074e+01
-5.884399158000000085e+01
-5.882987873999999806e+01
-5.881601161999999761e+01
-5.880260106000000064e+01
-5.878983398999999821e+01
-5.877786162999999675e+01
-5.876684114999999764e+01
-5.875689134999999652e+01
-5.874809774999999945e+01
