-6.999999982157526147e-06 -5.000001783376815095e-06 5.999998534668432790e-06 5.999999914945258751e-06 -7.000001451299697380e-06 9.999999035122906986e-06 4.999999362695969280e-06 9.000000824042923224e-06 -1.999997885065535541e-06 -3.999999553765916199e-06 6.000002410633519023e-06 -1.399999909436655869e-05 -9.999998099694177762e-07 -7.000001266812421527e-06 5.999998553723629020e-06 -1.000000016283379967e-06 -7.000001857171683587e-06 8.999998553723563874e-06 -4.483127908524911581e-13 1.000000118071829454e-05 -5.999998032135722420e-06 -1.999999156901706619e-06 -4.999998991469477148e-06 -6.000001121474619119e-06 -1.000000705555634420e-06 4.999999126760145146e-06 4.000000915160648972e-06 -3.000000653587370560e-06 1.999998364212835567e-06 7.000000187258665060e-06 -1.000000309730778645e-06 1.999999520333054911e-06 2.000000324801448413e-06 -5.685326814443106376e-13 9.000000590359055611e-06 -2.999998228922202463e-06 -4.999998675502444641e-06 -4.999997872246707129e-06 -1.300000132778847956e-05 3.000000619461551527e-06 -3.999998954572051372e-06 -4.000000580831559155e-06 6.999999071327288044e-06 1.999998438007732525e-06 1.100000087497195434e-05 4.000000688232866919e-06 -3.999998671691572518e-06 -5.000000512060200898e-06
-1.246500134868244215e-02 4.164996093703373856e-03 1.439699996238038258e-02 -1.004800141499290374e-02 1.036699763994022860e-02 7.597001349070196287e-03 2.527899999856656962e-02 8.253004205436285587e-03 -1.031099663745085188e-02 1.426400052781530252e-02 -1.134600005677263712e-02 6.528998748215557486e-03 -4.686000317571380712e-03 -5.090014375493845562e-04 5.254999577573113249e-03 1.016000076186439685e-02 1.100305747060678120e-05 -1.109199929911831861e-02 -3.031399793318345290e-02 7.033005036871299576e-03 -3.885800070073462675e-02 -7.077998268304671291e-03 -1.243199871687844862e-02 -9.617002933212027982e-03 -7.760002002343650666e-03 1.546699741265179437e-02 9.753002510029685351e-03 1.880600134013830221e-02 -1.938899932273450977e-02 4.785997477821876851e-03 6.619980887637503782e-04 8.829996763379741043e-03 1.673700178315030290e-02 3.013998973637564173e-03 -1.295300586844135016e-02 3.113999765830170741e-02 4.590027175732225967e-04 -1.512999591160187410e-02 -2.057500294581196543e-02 1.347499971024833203e-02 1.065000593372515160e-03 2.880001136271244377e-03 -1.937999673014999952e-02 -1.440199585995773426e-02 -2.951700416690583237e-02 5.733995883687370218e-03 3.100599635347310937e-02 2.103900649589396724e-02
-2.388200268889544703e-02 8.380992314432378007e-03 2.860700000686923830e-02 -1.958000273113907549e-02 2.016499546697516146e-02 1.446900262165494791e-02 4.974400010365194469e-02 1.564100843249449993e-02 -2.108799350110180867e-02 2.816000102114706721e-02 -2.207100009091484891e-02 1.278199759332763162e-02 -9.306000629253373402e-03 -1.223002903067034507e-03 1.068099911934391501e-02 2.021100151064769007e-02 1.340060957176376639e-04 -2.213399858369263784e-02 -6.039199589479024577e-02 1.382900995434244336e-02 -7.700600143187763535e-02 -1.446099658555615765e-02 -2.447599750448932465e-02 -1.900800581104618997e-02 -1.613300392207474981e-02 3.039699487662796129e-02 1.897700487222825014e-02 3.706000257816852161e-02 -3.758799869200903782e-02 9.566995151857809326e-03 8.659962663745062817e-04 1.704099358906699738e-02 3.295700341299255542e-02 6.139998041611017393e-03 -2.669101165069023146e-02 6.189099516982848187e-02 5.600053399951754893e-04 -2.994799204943434517e-02 -4.015700585484673069e-02 2.679499940925731544e-02 2.358001197408389309e-03 5.638002306750235920e-03 -3.746799360458275691e-02 -2.800599182495024098e-02 -5.793500808792355350e-02 1.180299178720079986e-02 6.199099278734577362e-02 4.181601301069382687e-02
-3.514700404451305549e-02 1.272798853644049183e-02 4.287700008759035009e-02 -2.881700402136088898e-02 2.971699333298610801e-02 2.127200386611778973e-02 7.438600026280371702e-02 2.267101274130518124e-02 -3.220299042302977172e-02 4.205300158029091212e-02 -3.317700003085785609e-02 1.855499636325777524e-02 -1.404700094441723758e-02 -1.736004339447999633e-03 1.590599869234745820e-02 3.058400225842886067e-02 2.950091681809061529e-04 -3.320899783864469934e-02 -9.080299381571420303e-02 2.032501488565013892e-02 -1.153700022449574009e-01 -2.191299491553189843e-02 -3.650799633149438145e-02 -2.822900869126413956e-02 -2.474600586589919757e-02 4.550699229534324597e-02 2.832600725334324249e-02 5.506500378537117213e-02 -5.551599810417071068e-02 1.445699286209879177e-02 1.043994428807241363e-03 2.522699036292562827e-02 4.942900503612709245e-02 9.635997114123722937e-03 -4.096101751915615097e-02 9.324199260211026019e-02 6.590079411428848444e-04 -4.458198820298513165e-02 -5.966000872781034026e-02 4.018199910244915629e-02 3.697001801899331332e-03 8.423003490889081207e-03 -5.520899055113705212e-02 -4.109898784055376203e-02 -8.594401188451979146e-02 1.801298759969599192e-02 9.363298913476768293e-02 6.309401966447911181e-02
-4.641200537860645792e-02 1.695198478973765008e-02 5.698800014410674436e-02 -3.778300531499147880e-02 3.917199118867806945e-02 2.824600511012937548e-02 9.931700046666533388e-02 2.937101712163543710e-02 -4.355498739002233027e-02 5.584800222828089494e-02 -4.476299984325864817e-02 2.363699503199086921e-02 -1.885500128118708027e-02 -1.629005690681954548e-03 2.066899838275091175e-02 4.130500300599419111e-02 3.970122554523538498e-04 -4.420699708127473482e-02 -1.224829916487780307e-01 2.665201991747880375e-02 -1.548000031785648767e-01 -2.895899325671269162e-02 -4.857599516447683174e-02 -3.724201155064524316e-02 -3.331400784422398897e-02 6.083798967365581373e-02 3.790000968104274143e-02 7.261600501493767346e-02 -7.380999758159166590e-02 1.947999046909375948e-02 1.367992555876619424e-03 3.365998710901278029e-02 6.610600671790847760e-02 1.350199618900375237e-02 -5.545502340417671899e-02 1.248389900157572674e-01 9.760105139881631491e-04 -5.892798434780353867e-02 -7.911201152910730949e-02 5.327899878513629728e-02 5.035002351117888464e-03 1.136200465488745176e-02 -7.371398745079016379e-02 -5.444998385128681923e-02 -1.143120157844281920e-01 2.407198334337153425e-02 1.256469853639086420e-01 8.490702638108445222e-02
-5.707700668272977507e-02 2.115298117478331755e-02 7.069200023735987271e-02 -4.625300652463063683e-02 4.793098915594794923e-02 3.487000625128820752e-02 1.234840007347016710e-01 3.532402143579627118e-02 -5.490498455655563881e-02 6.926000287756280127e-02 -5.597099959181455614e-02 2.822699374876981235e-02 -2.362500159485650744e-02 -1.470006959732981502e-03 2.503099808600057694e-02 5.208500372358682712e-02 5.420152726309372150e-04 -5.482299631138545098e-02 -1.537979894895437349e-01 3.257802485990494989e-02 -1.936160041659821807e-01 -3.590499165894248806e-02 -6.026799407090981803e-02 -4.583801432915752400e-02 -4.203100975986569926e-02 7.565498709187913617e-02 4.720601199734709291e-02 8.949400619109813826e-02 -9.140299709707851161e-02 2.440198816775289437e-02 1.537990730077045407e-03 4.178598390107414462e-02 8.248200832868565757e-02 1.747299532010719234e-02 -6.997102912469616021e-02 1.556459874322959902e-01 1.207012990290113729e-03 -7.283398066788483727e-02 -9.771101424973262228e-02 6.609699845946298558e-02 6.542002894026975601e-03 1.421100583295552104e-02 -9.161698447104514587e-02 -6.705197997076899064e-02 -1.418640194955432532e-01 3.003797913865760907e-02 1.572819816393559444e-01 1.064440330167120141e-01
-6.721800796529717181e-02 2.538397767401430472e-02 8.404500037255274725e-02 -5.436800768163096986e-02 5.620398718467669447e-02 4.133700732122267546e-02 1.474820010588441532e-01 4.070202575429872349e-02 -6.635098184786349107e-02 8.231000355481749020e-02 -6.704699925897468493e-02 3.224499246662935331e-02 -2.837000190835652080e-02 -1.027008156182125003e-03 2.903499784685687271e-02 6.305600442283744445e-02 6.660182485950649897e-04 -6.514599553249336705e-02 -1.854749873174180164e-01 3.826402974892818137e-02 -2.323190052255234561e-01 -4.276099011105003594e-02 -7.168499304456997512e-02 -5.405301704736413526e-02 -5.080201165861670393e-02 9.028298450722446744e-02 5.650301427274516397e-02 1.057740073525103713e-01 -1.087559966471259854e-01 2.923798587251551229e-02 1.660988921139957024e-03 4.980798071171954611e-02 9.874300991576480391e-02 2.163199450626510784e-02 -8.477503474244386938e-02 1.860129848050892376e-01 1.413015397768255937e-03 -8.633597708752779876e-02 -1.158150168925754925e-01 7.867299812089595390e-02 8.174003410000919498e-03 1.709100701897922972e-02 -1.094049815383724422e-01 -7.940197615296452904e-02 -1.690470231491594533e-01 3.596797492512848748e-02 1.890129779101295260e-01 1.279890396687553000e-01
-7.707600921785777437e-02 2.957397427337267806e-02 9.701300051913970546e-02 -6.219200880066121789e-02 6.401598523353917158e-02 4.782900832045106077e-02 1.711140014202625903e-01 4.553603001393744659e-02 -7.765797927139347911e-02 9.503400426968541814e-02 -7.808699883770391093e-02 3.567099116915375956e-02 -3.311700220686870921e-02 -2.860092365026891152e-04 3.244799766621798975e-02 7.421400509349806995e-02 7.770211556470481198e-04 -7.503699474329929286e-02 -2.170399851493229892e-01 4.361103455254611294e-02 -2.705390063440729076e-01 -4.931198861716161452e-02 -8.282699207875425518e-02 -6.182701969047924018e-02 -5.951501354837198526e-02 1.047489819133946287e-01 6.587201652025256871e-02 1.213900085088962105e-01 -1.259299962246251403e-01 3.392298356683873251e-02 1.882987111975593757e-03 5.785897753738221405e-02 1.149710115153591145e-01 2.595999372375087585e-02 -9.946604022816017687e-02 2.157829822117417196e-01 1.719017745799567270e-03 -9.948697358219558973e-02 -1.334940194594692320e-01 9.090199776568283485e-02 9.965003887638405541e-03 2.001400821242832473e-02 -1.270189786688292466e-01 -9.137497240794646702e-02 -1.957840267166209569e-01 4.170297073091388390e-02 2.205579741735605726e-01 1.494860462707859328e-01
-8.664001043200046659e-02 3.369397099072911350e-02 1.095100006721703850e-01 -6.973100987817525132e-02 7.133298330378985697e-02 5.433700924187000181e-02 1.941550018162297164e-01 4.977703417546585490e-02 -8.872497685226164721e-02 1.073820050120951608e-01 -8.898599833525874803e-02 3.851998987356704263e-02 -3.782400249064982872e-02 7.439897999694808708e-04 3.528499754520125070e-02 8.548900572979242773e-02 8.710239702463112030e-04 -8.440699394940431866e-02 -2.480289830219320202e-01 4.862803920798387802e-02 -3.077540074879496768e-01 -5.553598718102862458e-02 -9.366799117589789947e-02 -6.913802225187341832e-02 -6.811401541551555250e-02 1.189259793228855805e-01 7.527401871872863026e-02 1.362960096445813840e-01 -1.427029958236970542e-01 3.840698129124565929e-02 2.147985314883455506e-03 6.588797439587130989e-02 1.310510131135813050e-01 3.038199298420744821e-02 -1.139380455288726696e-01 2.446539796679549628e-01 2.092020021858832877e-03 -1.122189701738176004e-01 -1.506510219393017713e-01 1.027619973943049853e-01 1.191500432642286951e-02 2.297300941178983397e-02 -1.441639758870439103e-01 -1.029069687650236570e-01 -2.217970301650458997e-01 4.715896659603525248e-02 2.516789704783044535e-01 1.706510527701918800e-01
-9.590601160426995286e-02 3.774696783705445285e-02 1.214820008325102618e-01 -7.701201090962583873e-02 7.809098139034925667e-02 6.087501007102834316e-02 2.164670022441924635e-01 5.335803820319182100e-02 -9.943097461314319430e-02 1.193090057740083809e-01 -9.967299776102342412e-02 4.081998859074632141e-02 -4.248400275635099560e-02 2.091988970563888727e-03 3.746099748999486001e-02 9.689000632546287961e-02 9.440266742762045771e-04 -9.315999315097671374e-02 -2.782019809568200275e-01 5.329804366998060206e-02 -3.436290086439939273e-01 -6.138698580672798111e-02 -1.041909903395184800e-01 -7.594802472503779656e-02 -7.654001725925312083e-02 1.327879767366443309e-01 8.473002086711442504e-02 1.504220107628082004e-01 -1.590199954275410277e-01 4.257397905174555713e-02 2.437983545832519711e-03 7.378697130472543220e-02 1.468860146879405193e-01 3.485399229453103181e-02 -1.280730505995664181e-01 2.723779771939238148e-01 2.549022221217114685e-03 -1.245249668727373971e-01 -1.672260243295265458e-01 1.142359970047623352e-01 1.406800473000715916e-02 2.594201062455324738e-02 -1.607329732014958767e-01 -1.139729652330884191e-01 -2.469940334821560945e-01 5.229996254879778345e-02 2.821989668586512012e-01 1.912940591296662662e-01
-1.049170127309861228e-01 4.172696481769882365e-02 1.328830009960214331e-01 -8.409301190428447592e-02 8.432497947031630803e-02 6.753401081082485713e-02 2.379920026919211951e-01 5.632204206772034594e-02 -1.096519725495649911e-01 1.308000065508133081e-01 -1.101159971216026379e-01 4.259798732595718868e-02 -4.710300300442575583e-02 3.807988285784008001e-03 3.891999751002551272e-02 1.084280068796694002e-01 9.770292615994520882e-04 -1.012599923509988897e-01 -3.073889789671164774e-01 5.770804793703578767e-02 -3.780820097833940685e-01 -6.680698449437938446e-02 -1.144009895661967924e-01 -8.224902710696760377e-02 -8.471501907978636059e-02 1.462989741519405140e-01 9.428802296368977987e-02 1.637620118702551864e-01 -1.749409950323443375e-01 4.640197683611860940e-02 2.822981802168594151e-03 8.160596827469404624e-02 1.624520162530901368e-01 3.930299165522101873e-02 -1.417450554140566310e-01 2.987899748094230423e-01 3.107024345612057967e-03 -1.364139636747364048e-01 -1.832330266307454769e-01 1.253029965957818126e-01 1.643000509441864751e-02 2.893201185045508883e-02 -1.766079706258824877e-01 -1.244809618185116762e-01 -2.712910366417322083e-01 5.709995860835438697e-02 3.119849633344025097e-01 2.113030653212484011e-01
-1.137110138054226033e-01 4.560296194100105227e-02 1.436540011539901851e-01 -9.103201286405836201e-02 9.002597753102291323e-02 7.435301145549975954e-02 2.585250031495815448e-01 5.866904572326171741e-02 -1.192449706756251865e-01 1.418290073313916433e-01 -1.202249964288773232e-01 4.390298609512238021e-02 -5.166700323076357793e-02 5.880987755887330873e-03 3.961599760409134641e-02 1.200840073879938380e-01 9.670317171987900806e-04 -1.086389915513678722e-01 -3.352039770706256583e-01 6.180205197763900121e-02 -4.107840108906245513e-01 -7.175298324759671331e-02 -1.242719888561665542e-01 -8.802102938958922262e-02 -9.259502086516964436e-02 1.593529715806304148e-01 1.039070249906212939e-01 1.762780129715978417e-01 -1.904579946260292200e-01 4.981297464332579833e-02 3.335980087055160064e-03 8.934496531767041616e-02 1.777030178112995740e-01 4.364399106347964519e-02 -1.547250599312517128e-01 3.236439725536712220e-01 3.761026391794607387e-03 -1.478889605902811710e-01 -1.986210288438927940e-01 1.359409961668107125e-01 1.902100542110863116e-02 3.192601309191811509e-02 -1.917959681718544029e-01 -1.343459585342936524e-01 -2.946250396275287842e-01 6.148395481361248333e-02 3.407719599451493053e-01 2.304440712876320574e-01
-1.223040148237271030e-01 4.936695921463581105e-02 1.537490013037419168e-01 -9.784301378052971676e-02 9.511297557539626080e-02 8.131101198815050835e-02 2.779850036131217839e-01 6.035504914040865782e-02 -1.280959690055528677e-01 1.523500081085461255e-01 -1.299179956872013875e-01 4.473698491121488874e-02 -5.615500343194373967e-02 8.315987393701873565e-03 3.949299777462050853e-02 1.318720078457781275e-01 9.050340267334084374e-04 -1.152179907528919633e-01 -3.615709752790309262e-01 6.565105578239369133e-02 -4.416540119464868464e-01 -7.619898207043955540e-02 -1.337879882148639565e-01 -9.322503156796599355e-02 -1.001350226127157433e-01 1.719099690244237366e-01 1.135980269431322159e-01 1.878930140761549406e-01 -2.055729941890523937e-01 5.267397246767815955e-02 3.940978414465268025e-03 9.690796244688842931e-02 1.925560193412015619e-01 4.780499052515417568e-02 -1.668940641113024759e-01 3.467059704451344038e-01 4.517028355962939001e-03 -1.589329576255459064e-01 -2.133560309652104969e-01 1.461509957151795047e-01 2.187600571114714162e-02 3.491901435589862129e-02 -2.062279658499754920e-01 -1.435099553904335690e-01 -3.169150424233869168e-01 6.539895119261689149e-02 3.684019567276538010e-01 2.485070769940800894e-01
-1.307140157846287121e-01 5.302895664315378232e-02 1.631370014460066242e-01 -1.045600146548640030e-01 9.955797359027622473e-02 8.846001240092889184e-02 2.962490040782349010e-01 6.131505228023435145e-02 -1.360609675605980173e-01 1.623300088777500094e-01 -1.391559949027613152e-01 4.511698377963992840e-02 -6.056200360523480292e-02 1.112998721166207419e-02 3.848999802530221614e-02 1.437980082489652700e-01 7.870361781255406485e-04 -1.209329899559456606e-01 -3.863609735961115454e-01 6.923105934567914954e-02 -4.706070129468323260e-01 -8.007398096316410696e-02 -1.429619876401121426e-01 -9.784103363977339485e-02 -1.072560243260705232e-01 1.839779664816600380e-01 1.234040288282297476e-01 1.985390151974175399e-01 -2.203779937113283793e-01 5.490397028639490418e-02 4.683976782728483008e-03 1.043159596667020267e-01 2.070090208500920959e-01 5.173099004045059873e-02 -1.781170679250968780e-01 3.678039685065963016e-01 5.398030240354978818e-03 -1.695679547775664764e-01 -2.274430329974461706e-01 1.559199952377552656e-01 2.502500596184065867e-02 3.791901564740617764e-02 -2.199929636505952857e-01 -1.520139523770798196e-01 -3.382500450434955952e-01 6.876694776651592900e-02 3.947339537009795785e-01 2.653610824074814634e-01
-1.390030166825527436e-01 5.655695422928538191e-02 1.717770015702232977e-01 -1.112330154966108958e-01 1.034199715585670531e-01 9.586501270200674385e-02 3.132030045304192711e-01 6.161205510694826859e-02 -1.430079663362030518e-01 1.717500096306604496e-01 -1.479059940929358385e-01 4.512298270558480484e-02 -6.487400374838304951e-02 1.431198721471219418e-02 3.658799835493461994e-02 1.558120085953897116e-01 6.070381593958135624e-04 -1.257449891651482576e-01 -4.093999720303000966e-01 7.247306264134736886e-02 -4.974340138932730193e-01 -8.332397992489312677e-02 -1.517969871254908343e-01 -1.018780356018881283e-01 -1.138570259950775210e-01 1.954589639659544686e-01 1.333000306335747620e-01 2.081930163337263606e-01 -2.348049931828335712e-01 5.644196811127576152e-02 5.561975197865676353e-03 1.115429569876761201e-01 2.210070223326484617e-01 5.532198960370263152e-02 -1.881860713462162604e-01 3.867599667721113299e-01 6.434032047653847133e-03 -1.798019520380533254e-01 -2.409110349401109297e-01 1.652259947363123316e-01 2.844100616972082551e-02 4.093401695961456505e-02 -2.330779615806297944e-01 -1.598239495045267189e-01 -3.585720474802700508e-01 7.147894456704595445e-02 4.195159508844734653e-01 2.808600874707499195e-01
-1.471970175129766190e-01 5.994395198200897640e-02 1.796120016732263569e-01 -1.179330163050423264e-01 1.066529694649070575e-01 1.035730128774490916e-01 3.287670049662073102e-01 6.120405759339388185e-02 -1.488339653461346890e-01 1.806020103590144921e-01 -1.560879932623493449e-01 4.477498170424224627e-02 -6.909100385671207434e-02 1.786198741623371000e-02 3.371899876351772130e-02 1.679460088790342975e-01 3.630399555884591153e-04 -1.295639883786926794e-01 -4.303759706008217223e-01 7.540306564765349162e-02 -5.218880147592358520e-01 -8.596597896170053710e-02 -1.602559866807287403e-01 -1.052940374481982078e-01 -1.198980276158262692e-01 2.062939614774054742e-01 1.433030323503077241e-01 2.168380174962143969e-01 -2.489249925906659999e-01 5.721496592717978391e-02 6.570973668067389521e-03 1.185369544200928354e-01 2.344960237783626500e-01 5.849798921659300072e-02 -1.969520743400262619e-01 4.033629652654990294e-01 7.612033775126016144e-03 -1.896359494161937997e-01 -2.537190367942955826e-01 1.740819942063916159e-01 3.217100633472613769e-02 4.397001830266680095e-02 -2.455329596425220584e-01 -1.669259467806212260e-01 -3.778630497343937189e-01 7.347594162321453848e-02 4.425899483171357729e-01 2.947800921487357395e-01
-1.553290182735804492e-01 6.319894990733888884e-02 1.865970017545174886e-01 -1.247010170783283273e-01 1.091989672967142305e-01 1.116300129130226998e-01 3.428490053780224867e-01 6.004805969937757060e-02 -1.533749646051817128e-01 1.888540110587657583e-01 -1.636549924137569445e-01 4.407298078266053826e-02 -7.322600392551334436e-02 2.179798783301496734e-02 2.979199925369965113e-02 1.802380090927126199e-01 5.304154891890459569e-05 -1.322829875943591083e-01 -4.490019693231341869e-01 7.803206834778453338e-02 -5.437580155228187717e-01 -8.795897807831574988e-02 -1.683279863131192100e-01 -1.080340391737193706e-01 -1.253470291929921765e-01 2.164749590034186488e-01 1.534910339790549472e-01 2.244580186959951318e-01 -2.627919919177053587e-01 5.712896372238016052e-02 7.747972188703423219e-03 1.253389519639890592e-01 2.474920251978473817e-01 6.119398888164755135e-02 -2.042710768694203649e-01 4.173959640106264524e-01 8.938035422532601346e-03 -1.990839469156039654e-01 -2.658460385623426236e-01 1.824859936421230899e-01 3.627200645392941042e-02 4.704101968764213410e-02 -2.574129578257984829e-01 -1.733449441862872920e-01 -3.962440518145687873e-01 7.472693895774867867e-02 4.638389460325064162e-01 3.069370964162829729e-01
-1.634610189557595128e-01 6.625794800879263036e-02 1.926870017972384663e-01 -1.315400178211184878e-01 1.111159650547142164e-01 1.200310128199349041e-01 3.553260057497080182e-01 5.824306139246646780e-02 -1.565199641023211352e-01 1.964680117207104615e-01 -1.705639915661730510e-01 4.309697994668818671e-02 -7.725500395623001448e-02 2.611198846102183446e-02 2.483799982555663297e-02 1.925880092366666629e-01 -3.329570709933333270e-04 -1.338929868209926266e-01 -4.649659682160502960e-01 8.039007072216024230e-02 -5.628080161566616502e-01 -8.922297727343318774e-02 -1.760049860100679209e-01 -1.101270407713755978e-01 -1.301030307179374679e-01 2.259479565641031862e-01 1.638060355161359560e-01 2.311260199320717690e-01 -2.764079911610120011e-01 5.620096150150363790e-02 9.091970768921927432e-03 1.319369496424994959e-01 2.598770265886726216e-01 6.332198858783481821e-02 -2.099270789203283027e-01 4.287489630439476618e-01 1.044203699011144598e-02 -2.081239445276005240e-01 -2.773230402378594750e-01 1.903799930479330993e-01 4.068300651997574374e-02 5.015902109854789015e-02 -2.686679561293489060e-01 -1.791569417327663616e-01 -4.136360537323124920e-01 7.517693659997710942e-02 4.830149440486774526e-01 3.172151002208061232e-01
-1.716330195568668837e-01 6.912694629197863039e-02 1.978360017998192222e-01 -1.385410185317356158e-01 1.123309627178877279e-01 1.288430125775620883e-01 3.661070060752686928e-01 5.575006263806305679e-02 -1.581329638514858416e-01 2.034120123350365295e-01 -1.767209907272724034e-01 4.187197921262242328e-02 -8.117200394248576256e-02 3.082098932320453608e-02 1.874300048284666467e-02 2.050620093027814284e-01 -7.949559216868444349e-04 -1.342759860540542471e-01 -4.780179672999787521e-01 8.248407273562965991e-02 -5.787500166421940540e-01 -8.971197654797942456e-02 -1.833009857737149806e-01 -1.115420422407584350e-01 -1.341180321870073522e-01 2.346369541553264826e-01 1.742900369498959490e-01 2.367990212180026144e-01 -2.898529903051998979e-01 5.433395924585013304e-02 1.059596941283912595e-02 1.382759474532504473e-01 2.716600279395335327e-01 6.478998833962194837e-02 -2.137650804497031043e-01 4.371629623896375882e-01 1.212203848144489775e-02 -2.168039422539300154e-01 -2.881420418304294628e-01 1.977899924175368640e-01 4.547700653510357988e-02 5.332402255153750187e-02 -2.792809545536331095e-01 -1.843949394280405552e-01 -4.299910554929495810e-01 7.471093457613936506e-02 4.999609423921536067e-01 3.254291035235010732e-01
-1.799260200734482673e-01 7.181694476251763992e-02 2.019800017588538610e-01 -1.457930192093094268e-01 1.127619602608616739e-01 1.381560121636470906e-01 3.750740063445649475e-01 5.253506338861883146e-02 -1.580239638674815761e-01 2.096410128941706696e-01 -1.820619899068328384e-01 4.042797858996287352e-02 -8.499100387735776529e-02 3.596999044925322520e-02 1.135000123346233646e-02 2.177230092819450735e-01 -1.334955024303869763e-03 -1.332969852896050411e-01 -4.878729665935058191e-01 8.431907436077798468e-02 -5.913200169588322952e-01 -8.941497590618414926e-02 -1.902139856147236907e-01 -1.122200435807178265e-01 -1.373250336019348206e-01 2.425149517712465175e-01 1.850020382796294383e-01 2.414310225723011460e-01 -3.032349893278598052e-01 5.139395693100323043e-02 1.230096811219519130e-02 1.444119453899323779e-01 2.828910292642698443e-01 6.550498814397082148e-02 -2.156430814106480298e-01 4.423589620692440771e-01 1.397403990083661424e-02 -2.251659400929689470e-01 -2.983130433485927102e-01 2.047259917432566745e-01 5.072800649643492699e-02 5.655502406186089376e-02 -2.891789531066973340e-01 -1.889279372565760839e-01 -4.453560570656807660e-01 7.325493291508818061e-02 5.145199411004471868e-01 3.313561062883832453e-01
-1.915299999999999989e-02 -2.151300000000000087e-02 5.013399999999999801e-02 -1.536399999999999919e-02 -3.390000000000000001e-04 4.558000000000000419e-03 -7.159999999999999698e-03 2.068199999999999900e-02 6.300000000000000044e-03 -2.382300000000000043e-02 2.250200000000000117e-02 -4.659399999999999653e-02 2.324299999999999977e-02 -2.140999999999999848e-02 1.213799999999999948e-02 -1.185000000000000072e-03 -1.132000000000000020e-02 -1.333200000000000010e-02 -3.783000000000000251e-02 2.277500000000000011e-02 -1.354799999999999928e-02 1.419199999999999975e-02 -1.827499999999999958e-02 3.029999999999999924e-04 -5.755999999999999832e-03 2.155699999999999977e-02 -1.599899999999999933e-02 4.502799999999999858e-02 -1.696100000000000038e-02 2.328999999999999907e-03 4.438000000000000105e-03 -1.083399999999999988e-02 3.501000000000000206e-03 2.183699999999999877e-02 4.910000000000000302e-03 -2.939999999999999905e-03 1.869600000000000081e-02 5.041899999999999854e-02 -3.397000000000000020e-02 5.024999999999999953e-03 -9.955000000000000307e-03 1.881499999999999839e-02 8.146999999999999728e-03 -2.245300000000000074e-02 1.162599999999999918e-02 -3.042299999999999865e-02 -9.773000000000000437e-03 1.844099999999999906e-02
-1.561099999999999988e-02 -2.076400000000000121e-02 4.170100000000000195e-02 -1.385800000000000053e-02 1.975100000000000119e-02 -2.925099999999999922e-02 -3.730100000000000082e-02 4.099799999999999972e-02 1.457699999999999968e-02 -3.514799999999999869e-02 3.384500000000000008e-02 -9.325200000000000156e-02 3.019700000000000162e-02 -4.551299999999999790e-02 3.109200000000000158e-02 -4.202000000000000006e-03 2.543999999999999821e-03 -1.284800000000000005e-02 -1.929000000000000159e-02 1.539699999999999923e-02 -3.229000000000000099e-03 3.483399999999999691e-02 -4.564399999999999707e-02 2.881900000000000087e-02 2.975099999999999967e-02 3.428000000000000057e-03 3.841999999999999929e-03 6.336899999999999478e-02 -1.425000000000000051e-02 4.238600000000000007e-02 2.312900000000000025e-02 5.281000000000000104e-03 1.768099999999999880e-02 3.621999999999999786e-03 6.682999999999999705e-03 -6.487099999999999811e-02 1.888700000000000101e-02 4.189099999999999768e-02 -2.187700000000000061e-02 -2.636700000000000155e-02 -1.477099999999999941e-02 3.067299999999999888e-02 -1.416599999999999977e-02 -2.386800000000000033e-02 1.222799999999999929e-02 -3.801700000000000218e-02 -5.063999999999999925e-03 3.727999999999999977e-03
-1.192799999999999937e-02 -1.985100000000000059e-02 3.279399999999999676e-02 -1.256099999999999925e-02 3.946199999999999708e-02 -6.248100000000000181e-02 -6.709800000000000486e-02 6.020600000000000257e-02 2.298400000000000096e-02 -4.629699999999999788e-02 4.535600000000000048e-02 -1.381650000000000100e-01 3.678700000000000025e-02 -6.865100000000000369e-02 4.943600000000000078e-02 -6.651999999999999927e-03 1.590899999999999953e-02 -1.274800000000000065e-02 -9.009999999999999997e-04 7.931000000000000549e-03 6.485999999999999578e-03 5.488900000000000029e-02 -7.189700000000000257e-02 5.644600000000000312e-02 6.461300000000000376e-02 -1.424800000000000025e-02 2.419699999999999976e-02 8.044199999999999962e-02 -1.174700000000000050e-02 8.135499999999999676e-02 4.119899999999999951e-02 2.106200000000000086e-02 3.097700000000000106e-02 -1.363800000000000082e-02 8.172000000000000444e-03 -1.249210000000000043e-01 1.849800000000000055e-02 3.295399999999999718e-02 -9.601000000000000159e-03 -5.684000000000000163e-02 -1.921199999999999991e-02 4.211700000000000166e-02 -3.598300000000000110e-02 -2.480299999999999866e-02 1.227899999999999998e-02 -4.483999999999999792e-02 -6.030000000000000204e-04 -1.086900000000000019e-02
-8.522999999999999327e-03 -1.945500000000000007e-02 2.420200000000000129e-02 -1.136799999999999963e-02 5.952699999999999658e-02 -9.582999999999999852e-02 -9.685599999999999765e-02 7.993000000000000105e-02 3.140400000000000136e-02 -5.795399999999999857e-02 5.705799999999999761e-02 -1.832449999999999912e-01 4.315999999999999698e-02 -9.192100000000000271e-02 6.771099999999999342e-02 -9.070999999999999203e-03 2.892899999999999985e-02 -1.266800000000000044e-02 1.715300000000000158e-02 4.739999999999999747e-04 1.644899999999999834e-02 7.461299999999999877e-02 -9.796199999999999353e-02 8.384600000000000386e-02 9.932499999999999662e-02 -3.154799999999999965e-02 4.430499999999999716e-02 9.699399999999999689e-02 -9.445999999999999536e-03 1.199979999999999936e-01 5.954600000000000171e-02 3.678399999999999725e-02 4.434899999999999953e-02 -2.990699999999999956e-02 8.923000000000000376e-03 -1.842509999999999981e-01 1.893200000000000091e-02 2.474600000000000063e-02 2.017000000000000130e-03 -8.693399999999999739e-02 -2.364600000000000035e-02 5.419100000000000306e-02 -5.770900000000000335e-02 -2.568499999999999950e-02 1.217200000000000053e-02 -5.174000000000000127e-02 3.629999999999999980e-03 -2.486400000000000068e-02