4.061819999999999986e+00 9.247300000000000519e-01 1.638639999999999830e+01 3.630529999999999813e+00 1.976050000000000084e+00 1.065329999999999977e+01 1.378239999999999910e+00 6.845900000000000318e-01 1.049980000000000047e+01 3.714799999999999769e-01 2.459300000000000097e-01 2.092509999999999870e+00 1.902169999999999916e+00 2.379859999999999864e+00 1.636749999999999972e+01 1.766369999999999996e+00 6.891500000000000403e-01 4.181720000000000326e+00 1.014489999999999892e+00 1.672560000000000047e+00 8.369569999999999510e+00 2.573179999999999801e+00 1.797350000000000003e+00 6.354989999999999917e+00 3.229579999999999895e+00 5.703500000000000236e-01 8.472329999999999472e+00 3.935309999999999864e+00 1.943850000000000078e+00 4.295230000000000103e+00 3.795000000000000040e-01 6.528599999999999959e-01 6.367720000000000269e+00 2.655860000000000110e+00 1.826780000000000070e+00 2.174679999999999946e+00
7.133099999999999996e-01 1.214579999999999993e+00 8.401820000000000732e+00 7.461499999999999799e-01 1.220359999999999889e+00 1.720480000000000009e+00 2.842830000000000190e+00 2.927000000000000088e-02 8.368109999999999715e+00 4.237300000000000288e+00 2.456960000000000033e+00 6.174940000000000317e+00 1.452760000000000051e+00 3.189000000000000168e-02 1.064349999999999952e+01 2.900729999999999809e+00 2.455039999999999889e+00 1.676900000000000057e+00 3.613640000000000185e+00 1.253759999999999986e+00 3.934499999999999886e+00 2.114489999999999981e+00 1.249179999999999957e+00 6.151629999999999932e+00 1.474280000000000035e+00 5.673000000000000265e-02 3.919970000000000176e+00 2.145840000000000192e+00 1.162779999999999925e+00 2.056200000000000117e+01 4.291280000000000427e+00 2.356710000000000083e+00 2.054799999999999827e+01 3.584870000000000001e+00 1.262250000000000094e+00 1.058530000000000015e+01
7.327500000000000124e-01 1.169950000000000045e+00 8.370219999999999771e+00 2.845950000000000202e+00 5.045999999999999791e-02 1.681230000000000002e+00 4.268239999999999590e+00 2.440830000000000055e+00 6.175069999999999837e+00 1.398819999999999952e+00 1.864000000000000032e-02 3.903739999999999988e+00 3.528620000000000090e+00 1.284489999999999910e+00 3.931690000000000129e+00 2.874960000000000182e+00 2.407789999999999875e+00 8.407099999999999795e+00 2.198770000000000113e+00 1.241530000000000022e+00 1.661009999999999920e+01 3.628550000000000164e+00 1.201619999999999910e+00 1.058629999999999960e+01 5.813000000000000111e-02 3.959999999999999978e-03 1.658999999999999986e+01 7.027799999999999603e-01 1.275249999999999995e+00 1.705519999999999925e+00 1.473649999999999904e+00 2.456529999999999880e+00 1.059520000000000017e+01 2.115240000000000009e+00 1.198460000000000081e+00 6.130910000000000082e+00
3.858999999999999930e-02 3.674999999999999795e-02 1.856840000000000046e+01 2.875389999999999890e+00 2.453689999999999927e+00 8.449909999999999144e+00 3.524249999999999883e+00 1.172409999999999952e+00 1.066920000000000002e+01 1.721999999999999920e-02 1.426999999999999970e-02 6.155020000000000380e+00 2.189670000000000005e+00 1.176940000000000097e+00 6.146620000000000417e+00 3.577809999999999935e+00 1.253759999999999986e+00 3.874029999999999863e+00 1.431980000000000031e+00 2.438969999999999860e+00 3.893190000000000150e+00 1.418469999999999898e+00 2.413229999999999986e+00 1.068329999999999913e+01 7.384800000000000253e-01 1.174520000000000008e+00 8.408329999999999416e+00 2.850429999999999797e+00 6.443000000000000116e-02 1.671839999999999993e+00 6.852000000000000313e-01 1.240070000000000006e+00 1.618249999999999966e+00 2.208099999999999952e+00 1.310449999999999893e+00 1.854899999999999949e+01
9.697000000000000064e-02 2.760999999999999913e-02 6.551549999999999763e+00 1.580850000000000088e+00 2.528999999999999998e-02 1.043900000000000006e+01 3.146079999999999988e+00 2.592699999999999783e+00 8.514319999999999666e+00 2.263009999999999966e+00 1.365329999999999933e+00 4.144800000000000151e-01 1.505209999999999937e+00 2.596709999999999852e+00 4.451450000000000351e+00 2.917959999999999887e+00 2.659949999999999815e+00 2.437100000000000044e+00 2.374629999999999797e+00 1.427580000000000071e+00 6.531869999999999621e+00 9.016600000000000170e-01 1.284950000000000037e+00 8.488860000000000738e+00 6.130000000000000032e-03 2.660149999999999793e+00 5.281799999999999828e-01 6.504699999999999926e-01 1.243389999999999995e+00 2.349349999999999827e+00 3.789950000000000152e+00 1.391459999999999919e+00 4.348110000000000142e+00 4.049680000000000391e+00 1.366219999999999990e+00 1.047819999999999929e+01
7.223600000000000021e-01 1.201179999999999914e+00 1.788110000000000088e+00 4.317719999999999558e+00 5.270999999999999991e-02 1.702799999999999869e+01 3.754550000000000054e+00 1.243279999999999941e+00 4.020889999999999631e+00 2.136410000000000142e+00 1.240629999999999900e+00 1.694610000000000127e+01 3.556890000000000107e+00 1.303970000000000073e+00 1.063829999999999920e+01 1.399629999999999930e+00 6.779000000000000303e-02 1.071269999999999989e+01 2.227209999999999912e+00 1.259090000000000042e+00 6.284430000000000405e+00 2.927719999999999878e+00 2.493650000000000144e+00 8.456749999999999545e+00 1.873000000000000012e-02 2.418379999999999974e+00 6.236329999999999707e+00 7.630799999999999805e-01 1.219870000000000010e+00 8.522240000000000038e+00 1.614819999999999922e+00 2.500910000000000188e+00 3.967220000000000191e+00 2.925100000000000033e+00 5.530999999999999805e-02 1.850300000000000056e+00
4.593329999999999913e+00 2.631479999999999819e+00 6.464929999999999843e+00 1.509730000000000016e+00 1.174000000000000044e-02 1.039659999999999940e+01 2.979750000000000121e+00 7.277000000000000135e-02 8.475270000000000081e+00 2.391300000000000203e+00 1.338389999999999969e+00 5.891699999999999715e-01 1.495389999999999997e+00 8.460000000000000506e-03 4.383569999999999744e+00 3.138900000000000023e+00 3.111999999999999836e-02 2.443000000000000060e+00 2.288130000000000219e+00 1.284319999999999906e+00 6.537499999999999645e+00 7.709200000000000497e-01 1.396400000000000086e+00 8.458949999999999747e+00 1.580199999999999938e-01 2.020999999999999880e-02 5.713899999999999535e-01 8.844199999999999839e-01 1.373220000000000107e+00 2.495120000000000005e+00 3.904819999999999958e+00 1.306840000000000002e+00 4.402940000000000076e+00 3.801940000000000097e+00 1.178309999999999969e+00 1.031390000000000029e+01
3.796089999999999964e+00 1.855059999999999931e+00 2.093449999999999811e+00 2.818189999999999973e+00 1.575860000000000039e+00 4.164480000000000182e+00 1.478290000000000104e+00 1.120030000000000081e+00 1.074009999999999998e+01 4.360739999999999839e+00 1.151240000000000041e+00 8.526830000000000354e+00 3.665840000000000209e+00 2.445479999999999876e+00 1.067919999999999980e+01 3.451690000000000147e+00 3.253999999999999948e-02 6.457840000000000025e+00 4.299879999999999924e+00 6.409399999999999542e-01 1.942869999999999919e+01 6.720199999999999507e-01 2.800799999999999956e-01 4.293599999999999639e+00 2.055759999999999810e+00 2.407220000000000137e+00 8.656060000000000088e+00 1.512340000000000018e+00 5.416100000000000358e-01 1.511670000000000069e+00 2.060529999999999973e+00 1.914379999999999971e+00 1.912979999999999947e+01 1.193070000000000075e+00 1.399639999999999995e+00 6.533970000000000056e+00
3.349990000000000023e+00 6.966900000000000315e-01 4.166260000000000296e+00 4.006230000000000402e+00 1.688099999999999934e+00 1.624459999999999837e+01 2.531810000000000116e+00 1.860160000000000036e+00 2.040049999999999919e+00 1.781160000000000077e+00 3.180799999999999739e-01 1.621519999999999939e+01 2.605039999999999800e+00 1.863879999999999981e+00 6.379690000000000083e+00 1.734059999999999935e+00 8.236700000000000133e-01 1.037079999999999913e+01 3.386610000000000120e+00 7.189100000000000490e-01 8.280509999999999593e+00 3.893159999999999954e+00 2.029529999999999834e+00 1.036439999999999984e+01 1.111890000000000045e+00 2.040449999999999875e+00 4.062730000000000175e+00 4.168200000000000238e-01 4.627100000000000102e-01 6.211219999999999963e+00 1.230259999999999909e+00 1.981619999999999937e+00 8.260310000000000485e+00 3.138000000000000234e-01 5.729999999999999538e-01 1.855709999999999971e+00
3.379220000000000113e+00 2.384830000000000005e+00 1.572910000000000030e+00 5.526299999999999546e-01 2.262880000000000003e+00 1.987839999999999918e+01 2.555359999999999854e+00 1.724400000000000099e-01 8.688109999999999999e+00 3.508519999999999861e+00 1.272440000000000015e+00 3.897450000000000081e+00 2.804899999999999949e+00 1.021589999999999998e+00 1.982250000000000156e+01 1.977000000000000091e+00 1.163089999999999957e+00 6.415060000000000429e+00 1.425280000000000102e+00 2.481959999999999944e+00 4.079690000000000261e+00 1.083110000000000017e+00 3.066599999999999882e-01 1.081729999999999947e+01 4.156069999999999709e+00 2.447319999999999940e+00 6.227759999999999962e+00 1.145159999999999956e+00 1.269209999999999949e+00 1.724439999999999973e+00 4.167699999999999738e-01 1.250029999999999974e+00 8.520830000000000126e+00 3.370210000000000150e+00 1.533400000000000096e+00 1.080690000000000062e+01
3.870839999999999836e+00 1.121860000000000079e+00 1.060089999999999932e+01 2.111950000000000216e+00 1.264469999999999983e+00 6.263810000000000322e+00 2.818000000000000019e-02 1.118200000000000027e-01 2.268999999999999836e-02 2.287830000000000030e+00 1.417070000000000052e+00 1.742165999999999926e+01 8.117600000000000371e-01 1.247419999999999973e+00 8.487370000000000303e+00 3.608880000000000088e+00 1.362030000000000074e+00 4.147210000000000285e+00 7.382900000000000018e-01 1.366340000000000110e+00 2.078660000000000174e+00 2.985669999999999824e+00 9.309000000000000608e-02 2.040579999999999838e+00 3.018289999999999917e+00 2.460989999999999789e+00 8.458310000000000883e+00 1.378039999999999932e+00 2.538640000000000008e+00 4.140220000000000233e+00 1.622440000000000104e+00 2.444999999999999840e+00 1.063400000000000034e+01 4.410249999999999559e+00 2.495610000000000106e+00 6.318439999999999834e+00
3.552719999999999878e+00 1.423519999999999897e+00 4.081140000000000434e+00 4.227380000000000138e+00 2.352499999999999869e-01 1.587139999999999951e+01 2.737070000000000114e+00 2.339400000000000091e-01 1.841579999999999995e+00 2.055509999999999948e+00 1.503989999999999938e+00 1.605150000000000077e+01 2.258430000000000160e+00 1.097469999999999946e+00 6.244360000000000355e+00 1.728099999999999969e+00 2.276089999999999947e+00 1.057240000000000002e+01 3.071289999999999853e+00 2.269579999999999931e+00 8.419800000000000395e+00 3.855300000000000171e+00 1.071550000000000002e+00 1.072819999999999929e+01 1.339299999999999935e+00 1.106899999999999967e-01 4.041369999999999685e+00 7.679999999999999327e-02 2.413839999999999986e+00 6.301280000000000214e+00 8.982900000000000329e-01 9.024900000000000144e-01 8.502940000000000609e+00 5.606499999999999817e-01 1.518369999999999997e+00 1.795299999999999896e+00
2.857500000000000040e-01 2.399399999999999977e+00 1.842859999999999943e+01 2.870629999999999793e+00 2.287999999999999812e+00 8.577270000000000394e+00 3.642490000000000006e+00 1.259290000000000020e+00 1.082659999999999911e+01 4.011059999999999626e+00 1.219400000000000067e-01 6.308659999999999712e+00 1.945049999999999946e+00 1.307039999999999980e+00 6.120000000000000107e+00 3.466019999999999879e+00 1.250480000000000036e+00 3.882480000000000153e+00 1.316750000000000087e+00 3.009999999999999828e-02 3.840619999999999923e+00 1.500389999999999890e+00 2.430989999999999984e+00 1.067029999999999923e+01 7.839599999999999902e-01 1.146800000000000042e+00 8.417759999999999465e+00 2.844629999999999992e+00 3.805999999999999661e-02 1.511740000000000084e+00 6.941899999999999737e-01 1.281689999999999996e+00 1.674129999999999896e+00 2.472249999999999837e+00 1.195710000000000051e+00 1.842889999999999873e+01
3.896679999999999922e+00 1.404590000000000005e+00 4.547320000000000029e+00 1.559970000000000079e+00 2.500000000000000139e-02 4.583409999999999762e+00 3.974600000000000133e+00 1.352200000000000069e+00 1.051409999999999911e+01 1.598759999999999959e+00 6.300000000000000261e-04 1.050380000000000003e+01 3.163899999999999935e+00 1.290999999999999960e-02 2.533059999999999867e+00 1.091199999999999948e-01 2.691889999999999894e+00 6.075800000000000090e-01 2.331370000000000164e+00 1.333599999999999897e+00 6.605199999999999960e+00 8.350499999999999590e-01 1.386460000000000026e+00 2.559260000000000090e+00 2.407630000000000159e+00 1.356870000000000021e+00 6.086700000000000443e-01 7.456800000000000095e-01 1.325649999999999995e+00 8.580130000000000479e+00 3.144000000000000128e+00 2.706249999999999822e+00 8.593439999999999301e+00 4.686749999999999972e+00 2.689839999999999787e+00 6.556709999999999816e+00
1.555029999999999912e+00 6.623999999999999333e-02 1.071080000000000076e+01 2.813800000000000079e+00 2.249999999999999830e-03 1.596009999999999929e+00 6.915599999999999525e-01 1.268059999999999965e+00 1.579609999999999959e+00 3.570339999999999847e+00 1.235540000000000083e+00 3.876990000000000158e+00 2.148149999999999782e+00 1.232760000000000078e+00 6.176689999999999792e+00 1.435540000000000038e+00 3.819999999999999785e-02 3.862960000000000171e+00 3.699009999999999909e+00 1.223160000000000025e+00 1.073520000000000074e+01 4.253370000000000317e+00 2.449899999999999967e+00 6.230199999999999960e+00 2.896360000000000046e+00 2.451140000000000096e+00 8.515719999999999956e+00 7.808199999999999585e-01 1.239509999999999890e+00 8.549849999999999284e+00 4.202119999999999855e+00 2.406810000000000116e+00 1.744050000000000011e+01 2.061350000000000016e+00 1.135930000000000106e+00 1.741260000000000119e+01
2.885339999999999794e+00 5.069999999999999854e-03 2.020550000000000068e+00 4.296929999999999694e+00 6.604000000000000148e-02 2.846999999999999878e-02 2.890849999999999920e+00 1.204999999999999995e-02 8.249019999999999797e+00 3.618259999999999810e+00 1.217240000000000100e+00 4.058580000000000076e+00 2.234399999999999942e+00 1.266080000000000094e+00 2.028626999999999825e+01 2.243189999999999795e+00 1.205600000000000005e+00 6.210939999999999905e+00 1.491230000000000055e+00 1.712999999999999939e-02 4.147079999999999878e+00 1.477109999999999923e+00 2.709999999999999909e-02 1.032949999999999946e+01 1.676000000000000059e-02 2.488319999999999865e+00 6.155689999999999884e+00 7.065399999999999459e-01 1.217740000000000045e+00 2.045990000000000197e+00 7.755100000000000326e-01 1.266610000000000014e+00 8.277269999999999683e+00 3.704050000000000065e+00 1.249649999999999928e+00 1.029219999999999935e+01
2.222220000000000084e+00 1.240520000000000067e+00 6.223119999999999763e+00 7.470200000000000173e-01 1.244070000000000009e+00 8.317379999999999995e+00 3.693140000000000089e+00 1.252070000000000016e+00 1.047899999999999920e+01 4.372869999999999813e+00 6.783999999999999753e-02 1.567137999999999920e+01 3.577960000000000029e+00 1.262950000000000017e+00 4.056199999999999584e+00 2.205369999999999830e+00 1.289400000000000102e+00 1.571799999999999997e+01 1.504380000000000051e+00 2.465500000000000025e+00 1.044630000000000081e+01 2.907080000000000108e+00 2.499730000000000008e+00 1.960879999999999956e+00 4.753999999999999893e-02 2.472989999999999799e+00 6.220410000000000217e+00 1.408800000000000052e+00 2.503130000000000077e+00 4.085460000000000313e+00 2.958309999999999995e+00 5.199999999999999761e-03 8.345470000000000610e+00 7.145200000000000440e-01 1.262459999999999916e+00 1.927839999999999998e+00
2.089970000000000105e+00 1.367459999999999898e+00 6.321019999999999861e+00 8.037199999999999900e-01 1.178620000000000001e+00 8.618109999999999715e+00 3.754539999999999988e+00 1.095949999999999980e+00 1.077190000000000047e+01 1.135599999999999943e-01 2.199599999999999889e-01 1.506559999999999988e+01 3.663339999999999819e+00 1.233729999999999993e+00 4.091140000000000221e+00 2.113760000000000083e+00 1.369480000000000031e+00 1.534750000000000014e+01 1.611720000000000041e+00 2.428570000000000118e+00 1.075249999999999950e+01 2.738269999999999982e+00 2.436780000000000168e+00 1.800079999999999902e+00 4.327090000000000103e+00 5.899999999999999863e-03 6.410050000000000026e+00 1.508729999999999905e+00 1.349999999999999985e-02 3.992459999999999898e+00 3.048039999999999861e+00 2.452840000000000131e+00 8.707399999999999807e+00 5.864399999999999613e-01 1.253989999999999938e+00 1.573700000000000099e+00
2.239020000000000010e+00 1.279970000000000052e+00 6.364630000000000010e+00 7.044999999999999873e-02 1.337620000000000031e+00 8.323560000000000514e+00 2.185830000000000162e+00 1.465980000000000061e+00 1.067919999999999980e+01 1.174269999999999925e+00 2.503460000000000019e+00 1.548770000000000024e+01 3.429980000000000029e+00 1.087809999999999944e+00 3.969879999999999853e+00 3.373969999999999914e+00 1.258829999999999893e+00 1.561650000000000027e+01 4.356589999999999741e+00 5.111000000000000265e-02 1.051849999999999952e+01 4.093880000000000408e+00 2.145999999999999991e-02 1.849560000000000093e+00 9.223000000000000642e-02 2.502400000000000180e+00 6.225789999999999935e+00 1.250119999999999898e+00 2.244889999999999830e+00 4.032930000000000348e+00 2.174220000000000041e+00 9.364999999999999714e-02 8.557959999999999567e+00 1.918600000000000083e+00 1.209600000000000009e+00 1.825280000000000014e+00
9.774800000000000155e-01 1.626199999999999868e-01 1.640380000000000038e+01 1.206409999999999982e+00 1.262150000000000105e+00 1.084999999999999964e+01 3.553519999999999790e+00 2.547989999999999977e+00 1.048129999999999917e+01 2.071149999999999824e+00 1.345339999999999980e+00 1.991780000000000106e+00 3.244489999999999874e+00 1.313639999999999919e+00 1.651620000000000132e+01 2.924209999999999976e+00 2.255900000000000016e+00 4.213669999999999582e+00 4.196069999999999744e+00 1.298570000000000002e+00 8.427599999999999980e+00 1.971289999999999987e+00 1.258799999999999919e+00 6.216109999999999580e+00 1.863520000000000065e+00 2.306379999999999875e+00 8.672200000000000131e+00 7.232699999999999685e-01 1.390810000000000102e+00 4.070210000000000328e+00 4.242740000000000400e+00 1.174199999999999966e-01 6.371249999999999858e+00 4.380209999999999937e+00 1.044400000000000051e-01 2.001570000000000071e+00
6.601900000000000546e-01 1.150290000000000035e+00 1.971049999999999969e+00 4.389219999999999899e+00 2.466120000000000090e+00 1.714932999999999907e+01 3.676070000000000171e+00 1.326359999999999983e+00 4.104709999999999859e+00 2.199019999999999975e+00 1.332140000000000102e+00 1.710813999999999879e+01 3.603460000000000107e+00 1.310929999999999929e+00 1.043050000000000033e+01 1.450129999999999919e+00 3.395000000000000101e-02 1.054540000000000077e+01 2.268530000000000157e+00 1.264690000000000092e+00 6.220609999999999751e+00 2.949479999999999880e+00 7.009999999999999565e-02 8.322359999999999758e+00 1.254000000000000115e-01 2.465380000000000127e+00 6.209069999999999645e+00 7.424199999999999688e-01 1.207009999999999916e+00 8.363220000000000098e+00 1.478639999999999954e+00 2.491680000000000117e+00 4.091239999999999988e+00 2.821649999999999991e+00 2.447210000000000107e+00 1.935799999999999965e+00
2.272289999999999921e+00 1.295889999999999986e+00 6.229009999999999714e+00 3.583559999999999857e+00 1.254159999999999942e+00 1.073419999999999952e+01 1.552859999999999907e+00 2.356000000000000108e-02 4.029519999999999769e+00 7.484399999999999942e-01 1.190460000000000074e+00 8.508919999999999817e+00 6.854599999999999582e-01 1.196360000000000090e+00 1.795160000000000089e+00 2.151370000000000005e+00 1.251549999999999940e+00 1.892099999999999937e+01 3.745830000000000215e+00 1.313520000000000021e+00 4.075929999999999609e+00 2.926039999999999974e+00 5.190999999999999781e-02 1.750010000000000066e+00 2.876139999999999919e+00 2.507719999999999949e+00 8.469279999999999475e+00 1.121000000000000052e-01 4.753999999999999893e-02 6.224920000000000009e+00 1.383270000000000000e+00 2.503420000000000201e+00 1.078810000000000002e+01 4.333520000000000039e+00 2.420669999999999877e+00 1.892530000000000001e+01
2.384199999999999875e+00 1.182509999999999950e+00 1.757499999999999896e-01 1.165999999999999953e-01 2.548840000000000217e+00 2.409100000000000130e-01 8.806100000000000039e-01 1.205580000000000096e+00 2.353000000000000203e+00 1.493730000000000002e+00 2.523089999999999833e+00 4.307330000000000325e+00 2.223910000000000053e+00 1.286350000000000104e+00 6.386949999999999683e+00 3.697639999999999816e+00 1.468599999999999905e+00 1.042600000000000016e+01 3.130689999999999973e+00 2.524010000000000087e+00 2.194859999999999811e+00 3.762840000000000185e+00 1.301029999999999909e+00 4.334109999999999907e+00 7.424199999999999688e-01 1.338470000000000049e+00 8.481540000000000745e+00 1.562119999999999953e+00 1.933999999999999886e-01 1.056739999999999924e+01 2.938400000000000123e+00 2.380000000000000171e-02 8.413750000000000284e+00 4.446629999999999860e+00 7.567999999999999727e-02 6.390609999999999680e+00
1.509090000000000042e+00 7.376000000000000612e-02 8.883359999999999701e+00 1.024019999999999930e+00 8.319699999999999873e-01 1.826519999999999921e+00 1.433729999999999949e+00 8.551499999999999657e-01 6.375700000000000145e+00 1.508469999999999978e+00 2.174370000000000136e+00 4.199340000000000295e+00 3.653270000000000017e+00 9.289399999999999880e-01 3.721410000000000107e+00 3.675460000000000171e+00 1.348260000000000014e+00 8.120540000000000092e+00 1.377410000000000023e+00 2.079309999999999992e+00 1.656299999999999883e+01 3.979540000000000077e+00 2.439839999999999787e+00 1.046119999999999983e+01 3.537380000000000191e+00 1.004440000000000000e+00 1.632880000000000109e+01 3.131359999999999921e+00 2.009630000000000027e+00 1.352300000000000058e+00 1.748660000000000103e+00 1.221139999999999892e+00 1.099050000000000082e+01 3.525679999999999925e+00 2.240580000000000016e+00 5.864499999999999602e+00
1.481379999999999919e+00 4.576000000000000206e-02 1.045090000000000074e+01 2.736730000000000107e+00 2.299080000000000013e+00 1.860600000000000032e+00 5.818999999999999728e-01 1.118519999999999959e+00 1.835329999999999906e+00 3.523880000000000123e+00 1.224969999999999892e+00 3.933879999999999821e+00 2.216099999999999959e+00 1.334230000000000027e+00 6.099969999999999892e+00 1.395389999999999908e+00 5.340999999999999914e-02 3.987470000000000070e+00 3.607779999999999987e+00 1.179920000000000080e+00 1.038359999999999950e+01 1.093699999999999950e-01 7.364999999999999325e-02 6.109759999999999636e+00 3.020690000000000097e+00 2.469999999999999973e-03 8.272949999999999804e+00 8.552199999999999802e-01 1.249279999999999946e+00 8.267549999999999955e+00 4.219619999999999926e+00 2.972999999999999948e-02 1.773029999999999973e+01 2.081770000000000120e+00 1.222730000000000095e+00 1.775479999999999947e+01
4.050279999999999880e+00 1.346950000000000092e+00 4.493789999999999729e+00 2.071390000000000065e+00 1.299670000000000103e+00 6.264999999999999458e-01 1.602989999999999915e+00 2.602279999999999927e+00 4.564720000000000333e+00 4.342480000000000118e+00 1.536049999999999915e+00 1.061969999999999992e+01 2.203409999999999869e+00 1.256890000000000063e+00 6.428790000000000227e+00 3.198269999999999946e+00 2.626499999999999946e-01 8.482509999999999550e+00 1.747880000000000100e+00 1.018899999999999945e-01 1.062390000000000079e+01 3.084389999999999965e+00 1.635999999999999954e-02 2.623520000000000074e+00 7.802499999999999991e-01 1.475700000000000012e+00 2.711329999999999796e+00 4.660899999999999821e+00 2.550870000000000193e+00 6.123899999999999899e-01 4.670840000000000103e+00 2.503680000000000128e+00 6.552389999999999937e+00 7.636199999999999655e-01 1.332940000000000014e+00 8.453089999999999549e+00
3.786449999999999871e+00 1.259209999999999940e+00 4.335569999999999702e+00 2.290410000000000057e+00 1.733570000000000055e+00 9.535000000000000420e-02 3.888990000000000169e+00 6.212499999999999689e-01 1.053240000000000087e+01 5.167100000000000026e-01 1.675359999999999960e+00 2.302740000000000009e+00 1.566899999999999959e-01 2.297899999999999943e-01 6.429219999999999935e+00 4.760000000000000342e-02 3.415500000000000203e-01 8.032999999999999863e-02 2.187050000000000161e+00 1.610579999999999901e+00 6.354940000000000033e+00 1.556780000000000053e+00 2.051289999999999836e+00 1.063080000000000069e+01 2.763320000000000221e+00 2.410400000000000043e-01 2.197610000000000063e+00 3.246859999999999857e+00 2.322099999999999831e+00 8.405319999999999681e+00 1.401270000000000016e+00 1.763099999999999945e-01 4.266840000000000188e+00 9.927099999999999813e-01 7.978100000000000191e-01 8.641000000000000014e+00
2.978979999999999961e+00 2.232999999999999916e-02 2.083390000000000075e+00 9.775999999999999968e-02 8.050000000000000211e-02 3.284000000000000113e-02 3.683710000000000040e+00 1.236590000000000078e+00 1.043249999999999922e+01 2.978759999999999852e+00 2.549879999999999924e+00 8.400339999999999918e+00 2.205299999999999816e+00 1.249719999999999942e+00 6.282790000000000319e+00 2.330639999999999823e+00 1.359960000000000058e+00 1.610007999999999839e+01 1.475170000000000092e+00 1.331000000000000065e-02 1.052399999999999913e+01 1.433920000000000083e+00 2.530870000000000175e+00 4.210700000000000109e+00 3.678739999999999899e+00 1.205440000000000067e+00 4.195359999999999978e+00 4.465569999999999595e+00 2.529570000000000096e+00 6.279420000000000002e+00 7.372800000000000464e-01 1.297520000000000007e+00 2.147320000000000118e+00 8.040800000000000169e-01 1.288380000000000081e+00 8.425069999999999837e+00
2.952220000000000066e+00 5.641000000000000181e-02 2.025059999999999860e+00 6.318000000000000005e-02 5.865999999999999687e-02 6.325719999999999565e+00 3.716730000000000089e+00 1.347960000000000047e+00 4.224380000000000024e+00 3.778439999999999799e+00 1.203040000000000109e+00 1.052500000000000036e+01 3.025959999999999983e+00 2.505650000000000155e+00 8.461679999999999424e+00 4.346969999999999779e+00 2.557920000000000194e+00 1.851716000000000051e+01 1.484660000000000091e+00 3.490999999999999659e-02 4.153900000000000148e+00 2.169410000000000061e+00 1.235670000000000046e+00 1.856208000000000169e+01 1.607460000000000111e+00 2.291999999999999940e-02 1.055599999999999916e+01 6.974500000000000144e-01 1.261840000000000073e+00 2.089900000000000091e+00 7.973099999999999632e-01 1.293320000000000025e+00 8.459239999999999426e+00 2.265470000000000095e+00 1.225470000000000059e+00 6.315669999999999895e+00
3.147479999999999833e+00 1.973100000000000132e-01 8.684139999999999304e+00 5.831600000000000117e-01 1.128039999999999932e+00 1.601359999999999895e+00 1.513970000000000038e+00 2.462629999999999875e+00 3.821969999999999867e+00 2.706300000000000150e+00 2.362670000000000048e+00 1.655690000000000106e+00 4.097699999999999676e+00 2.293060000000000098e+00 1.775829999999999842e+01 8.972299999999999720e-01 1.506250000000000089e+00 8.812680000000000291e+00 3.766900000000000137e+00 1.159270000000000023e+00 1.110740000000000016e+01 1.909790000000000099e+00 1.107129999999999947e+00 1.784499999999999886e+01 4.866000000000000186e-02 1.146699999999999942e-01 6.313340000000000174e+00 3.804689999999999905e+00 1.263589999999999991e+00 3.862060000000000048e+00 1.642449999999999966e+00 1.164599999999999941e-01 1.087930000000000064e+01 2.249229999999999841e+00 1.345720000000000027e+00 6.110129999999999839e+00
1.725530000000000008e+00 1.043530000000000069e+00 2.091650000000000009e+00 1.020899999999999919e+00 2.348650000000000126e+00 1.721239999999999881e+01 1.072999999999999995e-02 1.096000000000000085e+00 4.109869999999999912e+00 3.129529999999999923e+00 9.310399999999999787e-01 1.017000000000000022e-02 2.608239999999999892e+00 1.650349999999999984e+00 1.040189999999999948e+01 4.364199999999999746e-01 2.939800000000000191e-01 1.022070000000000078e+01 1.286589999999999900e+00 1.509409999999999918e+00 6.260849999999999582e+00 2.044599999999999973e+00 2.585700000000000220e-01 8.337160000000000792e+00 3.584779999999999855e+00 7.850999999999999646e-02 6.146779999999999688e+00 4.255200000000000315e+00 1.385809999999999986e+00 8.094939999999999358e+00 2.261629999999999807e+00 2.327150000000000052e+00 4.215180000000000149e+00 3.970990000000000020e+00 2.133809999999999985e+00 1.999970000000000026e+00
6.363499999999999712e-01 1.169820000000000082e+00 8.144849999999999923e+00 2.854330000000000034e+00 8.243999999999999939e-02 1.919229999999999992e+00 4.260880000000000223e+00 5.070000000000000201e-02 6.061169999999999725e+00 1.510119999999999907e+00 9.339999999999999344e-03 3.971909999999999830e+00 3.641000000000000014e+00 1.258240000000000025e+00 3.993879999999999875e+00 2.793039999999999967e+00 2.351929999999999854e+00 8.146490000000000009e+00 2.200050000000000061e+00 1.161450000000000093e+00 1.689661999999999864e+01 3.593329999999999913e+00 1.255789999999999962e+00 1.036369999999999969e+01 6.065999999999999864e-02 2.437720000000000109e+00 1.695549000000000106e+01 7.230299999999999505e-01 1.307700000000000085e+00 1.949659999999999949e+00 1.439170000000000060e+00 1.227999999999999925e-02 1.022090000000000032e+01 2.114520000000000177e+00 1.194220000000000059e+00 6.063180000000000014e+00
2.013920000000000154e+00 2.381600000000000161e+00 2.059089999999999865e+00 3.980750000000000011e+00 1.934420000000000028e+00 6.332029999999999603e+00 3.178249999999999797e+00 7.913700000000000179e-01 4.169640000000000235e+00 3.933539999999999814e+00 2.480859999999999843e+00 1.069660000000000011e+01 2.736639999999999961e+00 1.066999999999999948e+00 8.654510000000000147e+00 1.884840000000000071e+00 1.352829999999999977e+00 1.811380000000000123e+01 1.050000000000000044e+00 1.938660000000000050e+00 4.255650000000000155e+00 4.189669999999999561e+00 1.066000000000000003e-01 1.843599999999999994e+01 1.711470000000000047e+00 1.417010000000000103e+00 1.069439999999999991e+01 4.230120000000000324e+00 1.222709999999999964e+00 2.002450000000000063e+00 7.162399999999999878e-01 2.470509999999999984e+00 8.533229999999999649e+00 1.735630000000000006e+00 7.607800000000000118e-01 6.268299999999999983e+00