-4.215114248999999802e+01
-4.246133894999999825e+01
-4.249088411000000320e+01
-4.238686632999999659e+01
-4.210979504000000162e+01
-4.261491333000000026e+01
-4.202774327000000198e+01
-4.194858651999999921e+01
-4.236452744999999709e+01
-4.218136221999999691e+01
-4.270842477000000059e+01
-4.258125171999999736e+01
-4.211257257999999837e+01
-4.201914207000000090e+01
-4.225907733999999749e+01
-4.266956781999999748e+01
-4.283764965999999674e+01
-4.213667999999999836e+01
-4.240397295999999727e+01
-4.196380097000000120e+01
-4.273168849999999708e+01
-4.253628085999999797e+01
-4.255643703999999872e+01
-4.203693565999999748e+01
-4.246621162000000282e+01
-4.134288569000000280e+01
-4.200280369000000036e+01
-4.283173331999999789e+01
-4.278230646000000092e+01
-4.192485436999999848e+01
-4.214878216000000322e+01
-4.238911664999999829e+01
-4.182296043000000196e+01
-4.238682873999999856e+01
-4.268617702000000236e+01
-4.279075576000000325e+01
-4.290345098000000235e+01
-4.253981560999999800e+01
-4.232575803999999664e+01
-4.193543025999999685e+01
-4.265735173000000202e+01
-4.137044024000000064e+01
-4.164289142999999882e+01
-4.241323884999999905e+01
-4.243952946000000281e+01
-4.233740999999999843e+01
-4.241776128000000057e+01
-4.270650588000000170e+01
-4.200656447000000071e+01
-4.276978490999999849e+01
-4.163174661000000043e+01
-4.285405257000000034e+01
-4.185342476000000289e+01
-4.231130333000000121e+01
-4.267501808000000096e+01
-4.230170720000000273e+01
-4.264435522000000134e+01
-4.254440274000000244e+01
-4.189278566000000126e+01
-4.253944831999999820e+01
-4.150727633000000338e+01
-4.251801400000000086e+01
-4.246611264999999946e+01
-4.285923623000000049e+01
-4.206109335000000016e+01
-4.270655662000000063e+01
-4.216179737000000216e+01
-4.227852252999999649e+01
-4.264254348000000050e+01
-4.124487342999999839e+01
-4.211483731999999947e+01
-4.233624856000000136e+01
-4.236804922999999690e+01
-4.227375439000000057e+01
-4.207003251999999804e+01
-4.265667737999999787e+01
-4.142454079000000178e+01
-4.251363089000000173e+01
-4.230351061999999729e+01
-4.216678549000000231e+01
-4.196259743000000242e+01
-4.112827745999999962e+01
-4.174691834000000057e+01
-4.241468335999999795e+01
-4.234526427000000126e+01
-4.228669581999999849e+01
-4.195228254999999962e+01
-4.224573453000000001e+01
-4.246622608999999926e+01
-4.180952953999999977e+01
-4.253943223999999645e+01
-4.254173152999999985e+01
-4.248535552999999965e+01
-4.238361258999999848e+01
-4.202865285000000029e+01
-4.246203666000000254e+01
-4.154411094000000304e+01
-4.242668733000000003e+01
-4.180802606999999682e+01
