-1.092106999999999939e+00 -5.479110000000000369e-01 9.616839999999999833e-01 3.223980000000000179e-01 -3.473260000000000236e-01 -8.834659999999999735e-01 -4.876590000000000091e-01 3.149300000000000016e-02 -7.354699999999999571e-01 -1.862310000000000076e-01 7.562299999999999578e-02 9.212299999999999656e-02 1.905550000000000022e-01 -4.404170000000000029e-01 7.451399999999999690e-02 -1.184048999999999907e+00 1.193990000000000051e-01 4.584790000000000254e-01 8.399199999999999722e-02 -3.376600000000000157e-01 -9.208239999999999759e-01 -4.063200000000000145e-01 8.380509999999999904e-01 3.884690000000000087e-01 -1.017004999999999937e+00 -1.077375999999999889e+00 -7.687009999999999676e-01 6.010149999999999659e-01 -1.846740000000000048e-01 6.801620000000000443e-01 1.276291999999999982e+00 1.309593000000000007e+00 1.610378000000000087e+00 -1.458949999999999969e-01 -9.001209999999999489e-01 -2.223950000000000093e-01 -3.304822999999999844e+00 -4.657488999999999990e+00 -4.224861999999999895e+00 -2.156460000000000043e-01 6.185659999999999492e-01 -3.021880000000000122e-01 5.147223999999999577e+00 4.594211999999999740e+00 3.055969000000000158e+00 4.182589999999999919e-01 9.060369999999999813e-01 7.361280000000000046e-01
-3.286649999999999849e-01 1.137661000000000033e+00 5.511540000000000328e-01 4.815114999999999590e+00 -3.893085000000000129e+00 3.614692999999999934e+00 3.562660000000000271e-01 8.395970000000000377e-01 5.692399999999999682e-01 9.568200000000000038e-01 3.289549999999999974e-01 3.726599999999999913e-01 -1.522950000000000137e-01 -5.174100000000000366e-01 -1.085440000000000016e-01 1.469518000000000102e+00 -2.313889000000000085e+00 5.189740000000000464e-01 -1.437553999999999998e+00 -3.810600000000000098e-02 -1.311241000000000101e+00 -9.343829999999999636e-01 2.914289999999999936e-01 -2.959309999999999996e-01 -4.072410000000000196e-01 -2.320309999999999873e-01 -8.048800000000000399e-02 -1.241455999999999893e+00 1.067142999999999953e+00 -1.158312999999999926e+00 4.686699999999999755e-01 1.719839999999999980e-01 3.613540000000000085e-01 1.452077999999999980e+00 8.203789999999999694e-01 -1.646459999999999868e-01 -9.696100000000000552e-02 -8.965180000000000371e-01 8.288729999999999709e-01 1.045910000000000034e-01 -5.463519999999999488e-01 4.617559999999999998e-01 -4.306595999999999869e+00 4.015304000000000428e+00 -4.372996999999999801e+00 -7.179079999999999906e-01 -2.350599999999999912e-01 2.134560000000000068e-01
