7.886139599999999916e+00 0.000000000000000000e+00 0.000000000000000000e+00 -1.970152510000000023e-01 7.911526085000000208e+00 0.000000000000000000e+00 -1.611553290000000138e-01 1.314637740000000055e-01 7.645840388999999959e+00
7.829786063000000240e+00 0.000000000000000000e+00 0.000000000000000000e+00 1.527528899999999919e-02 7.946796406999999896e+00 0.000000000000000000e+00 -1.850402760000000035e-01 1.843753290000000045e-01 7.835437312999999904e+00
7.916424852999999651e+00 0.000000000000000000e+00 0.000000000000000000e+00 1.232991959999999998e-01 7.994538005999999974e+00 0.000000000000000000e+00 6.965181099999999403e-02 2.025668810000000042e-01 7.888189485999999917e+00
8.046234144999999671e+00 0.000000000000000000e+00 0.000000000000000000e+00 1.237026999999999918e-02 7.955421741000000324e+00 0.000000000000000000e+00 1.878376419999999991e-01 -1.469098630000000016e-01 7.893105677000000320e+00
7.853593142000000249e+00 0.000000000000000000e+00 0.000000000000000000e+00 1.207410400000000043e-02 7.764954946999999663e+00 0.000000000000000000e+00 1.833404780000000012e-01 -1.433925819999999907e-01 7.704130839000000286e+00
7.757970809999999773e+00 0.000000000000000000e+00 0.000000000000000000e+00 1.192709399999999920e-02 7.670411839999999870e+00 0.000000000000000000e+00 1.811081949999999996e-01 -1.416466889999999923e-01 7.610328303000000183e+00
7.776265679999999847e+00 0.000000000000000000e+00 0.000000000000000000e+00 5.603354700000000299e-02 7.934090817000000406e+00 0.000000000000000000e+00 7.849739499999999759e-02 1.071147189999999971e-01 7.732099688999999998e+00
7.895876513000000152e+00 0.000000000000000000e+00 0.000000000000000000e+00 1.540422699999999950e-02 8.013874530000000718e+00 0.000000000000000000e+00 -1.866021820000000053e-01 1.859316219999999908e-01 7.901575464000000437e+00
7.671117029000000365e+00 0.000000000000000000e+00 0.000000000000000000e+00 -1.562150979999999967e-01 7.714064469000000202e+00 0.000000000000000000e+00 6.697656500000000179e-02 7.886784900000000376e-02 8.010273424999999392e+00
7.873160388999999704e+00 0.000000000000000000e+00 0.000000000000000000e+00 1.210418599999999942e-02 7.784301351999999952e+00 0.000000000000000000e+00 1.837972710000000121e-01 -1.437498449999999872e-01 7.723325701000000265e+00
7.815442648000000325e+00 0.000000000000000000e+00 0.000000000000000000e+00 1.217263870000000053e-01 7.892559387999999565e+00 0.000000000000000000e+00 6.876332999999999751e-02 1.999829310000000027e-01 7.787567453000000306e+00
7.834146205999999779e+00 0.000000000000000000e+00 0.000000000000000000e+00 1.204420600000000001e-02 7.745727495999999768e+00 0.000000000000000000e+00 1.828864930000000111e-01 -1.430375160000000034e-01 7.685054000000000052e+00
7.518385372000000011e+00 0.000000000000000000e+00 0.000000000000000000e+00 -1.531048610000000088e-01 7.560477728999999592e+00 0.000000000000000000e+00 6.564306400000000097e-02 7.729759299999999778e-02 7.850789176000000147e+00
7.605544389000000294e+00 0.000000000000000000e+00 0.000000000000000000e+00 -1.548797729999999984e-01 7.648124713999999713e+00 0.000000000000000000e+00 6.640405000000000613e-02 7.819368699999999783e-02 7.941801678000000031e+00
