-5.717099999999999960e-02 6.048400000000000304e-02 1.832648999999999972e+00 -1.916126999999999914e+00 -6.706600000000000061e-02 -3.022460000000000147e-01 -7.945710000000000273e-01 1.045134999999999925e+00 3.198460000000000192e-01 1.022405999999999926e+00 -3.602279999999999927e-01 1.281342999999999899e+00 1.372289999999999899e-01 -1.500970000000000082e-01 6.307620000000000449e-01 2.777299999999999908e-02 1.195586000000000038e+00 -1.120140000000000025e-01 -9.701049999999999951e-01 -2.266913999999999874e+00 4.309720000000000217e-01 8.469119999999999981e-01 -2.218929000000000151e+00 5.355969999999999898e-01 9.014259999999999495e-01 1.796800000000000064e-01 8.005360000000000253e-01 2.500620000000000065e-01 6.732059999999999711e-01 -4.300099999999999756e-02 -1.586433999999999900e+00 5.116235999999999784e+00 -2.511528999999999900e+00 7.233129999999999837e-01 9.335329999999999462e-01 3.926999999999999935e-01 1.903849999999999987e-01 -2.664495000000000058e+00 -5.018230000000000190e-01 4.089439999999999742e-01 -3.647279999999999966e-01 4.660009999999999986e-01 2.939795999999999854e+00 -3.041885000000000172e+00 1.242088999999999999e+00 8.465340000000000087e-01 -9.771199999999999330e-02 -1.691464999999999996e+00 9.495569999999999844e-01 1.302165000000000017e+00 -1.611234000000000055e+00 -9.561089999999999867e-01 -9.297680000000000389e-01 -5.299760000000000026e-01 -3.285009999999999875e-01 -2.226938000000000084e+00 4.545159999999999756e-01 8.698489999999999833e-01 -6.473229999999999817e-01 5.633970000000000367e-01 -7.716730000000000533e-01 -3.708600000000000091e-02 5.467459999999999543e-01 -1.520626000000000033e+00 -4.679650000000000198e-01 7.147199999999999387e-02 5.328140000000000098e-01 -4.481310000000000016e-01 -2.770790000000000197e-01 -1.437699999999999916e-02 -7.291200000000000458e-02 -4.575270000000000170e-01 2.326979999999999882e-01 2.195380000000000109e-01 3.496549999999999936e-01 2.062650000000000039e-01 7.494279999999999831e-01 3.470619999999999816e-01 -1.130406000000000022e+00 2.745779999999999887e-01 -4.475600000000000134e-01 3.884130000000000082e-01 1.346441999999999917e+00 -2.399799999999999850e-02 -5.677769999999999762e-01 3.511578000000000088e+00 -1.552483000000000057e+00 2.896079999999999766e-01 3.157079999999999886e-01 -1.959839999999999915e-01 -7.408599999999999908e-02 1.343380000000000130e-01 -3.360540000000000194e-01 -1.076022999999999952e+00 -9.954600000000000115e-01 3.286299999999999777e-01
1.047909999999999953e-01 9.758500000000000507e-02 1.620999999999999941e-01 -8.592710000000000070e-01 -8.918580000000000396e-01 1.627305000000000001e+00 8.410700000000000121e-02 -2.339239999999999930e-01 2.579899999999999971e-01 -4.104470000000000063e-01 3.554039999999999977e-01 5.455000000000000127e-02 1.384554000000000062e+00 -7.995729999999999782e-01 -1.178954000000000057e+00 8.515390000000000459e-01 -1.399550000000000072e+00 4.798089999999999855e-01 7.682390000000000052e-01 5.056920000000000304e-01 1.302669999999999939e-01 1.478877999999999915e+00 4.063398000000000287e+00 5.247467999999999577e+00 -1.262755000000000072e+00 3.157963000000000076e+00 -1.472000000000000045e-02 1.484920000000000129e-01 -9.036039999999999628e-01 -8.174559999999999604e-01 7.304890000000000549e-01 -1.219826000000000077e+00 -1.046826999999999952e+00 1.076330000000000064e-01 6.717990000000000350e-01 -1.018698000000000103e+00 -1.208734999999999893e+00 1.073309000000000069e+00 9.938909999999999689e-01 5.941659999999999719e-01 -4.499650000000000039e-01 -4.380629999999999802e-01 -7.512900000000000134e-02 -1.718870000000000120e-01 1.215912000000000104e+00 -3.130629999999999802e-01 -7.038560000000000372e-01 -1.742799999999999905e-01 1.487819999999999976e-01 3.033020000000000160e-01 -2.690890000000000226e-01 -9.741610000000000547e-01 4.362800000000000011e-01 -1.853819999999999912e-01 3.330230000000000135e-01 -1.550590000000000024e-01 2.816279999999999895e-01 -4.344830000000000081e-01 -6.262590000000000101e-01 9.806900000000000339e-02 -3.858739999999999948e-01 3.622259999999999924e-01 -2.315520000000000078e-01 -4.773209999999999953e-01 -6.664437999999999640e+00 -5.207713000000000036e+00 3.147490000000000010e-01 9.618649999999999700e-01 -2.675219999999999820e-01 4.044920000000000182e-01 1.611680000000000057e-01 -3.202699999999999991e-01 5.048259999999999970e-01 -2.953400000000000122e-02 -1.157350000000000045e-01 -3.424599999999999866e-01 -5.224170000000000202e-01 1.016936000000000062e+00 -1.456010000000000082e-01 1.248939000000000021e+00 -6.014709999999999779e-01 -4.949399999999999911e-01 3.457189999999999985e-01 -5.217100000000000209e-02 5.372280000000000388e-01 -4.011449999999999738e-01 -1.640629999999999866e-01 -1.974800000000000166e-02 8.332000000000000864e-03 2.617169999999999774e-01 -8.858270000000000310e-01 1.657467999999999941e+00 7.529780000000000362e-01 -2.061749999999999972e-01 -2.375549999999999884e-01 -4.766540000000000221e-01
1.500529999999999919e-01 7.753480000000000372e-01 -6.310930000000000151e-01 5.961600000000000232e-02 -1.898792000000000035e+00 -2.997429999999999817e-01 -2.373600000000000015e-02 7.325019999999999865e-01 -3.573500000000000287e-02 1.258761999999999937e+00 1.073288999999999938e+00 9.372819999999999485e-01 4.457309999999999883e-01 -1.947989999999999999e-01 -2.850019999999999776e-01 4.219439999999999857e-01 1.698209999999999997e-01 7.931820000000000537e-01 1.702889999999999959e-01 -2.325490000000000057e-01 -1.221489999999999937e-01 9.994200000000000306e-02 -2.671430000000000193e-01 2.933810000000000029e-01 7.560019999999999518e-01 -1.012526000000000037e+00 6.578829999999999956e-01 -1.326319999999999999e-01 4.641350000000000198e-01 -1.113340000000000024e-01 9.831130000000000146e-01 -5.348948000000000036e+00 -5.894478999999999580e+00 -2.830452999999999886e+00 -1.897453999999999974e+00 1.164633000000000029e+00 4.804769999999999874e-01 -6.870300000000000018e-02 8.731480000000000352e-01 8.073400000000000021e-02 -2.158170000000000088e-01 1.763889999999999902e-01 1.968360000000000110e-01 -1.485150000000000081e-01 -3.707260000000000000e-01 1.156748000000000109e+00 -4.283100000000000240e-01 3.794980000000000020e-01 1.348969999999999891e-01 -3.962220000000000186e-01 -1.108279999999999960e-01 -1.651421000000000028e+00 5.414927999999999741e+00 5.338657000000000430e+00 6.594999999999999474e-02 1.107966000000000006e+00 -3.718170000000000086e-01 3.354170000000000207e-01 8.657099999999999518e-02 -3.481100000000000166e-02 8.154970000000000274e-01 1.422177000000000024e+00 -1.498899999999999955e-01 -1.857774999999999954e+00 -1.119142999999999999e+00 -2.740900000000000003e-01 2.078997999999999902e+00 1.848789999999999933e+00 -1.486752000000000073e+00 1.143302000000000040e+00 -3.044640000000000124e-01 -6.707060000000000244e-01 -4.064099999999999657e-02 1.737278000000000100e+00 -8.793680000000000385e-01 -1.250653999999999932e+00 8.696739999999999471e-01 5.817849999999999966e-01 -9.406390000000000029e-01 -6.308829999999999716e-01 1.236811000000000105e+00 -3.114919999999999911e-01 -5.229620000000000379e-01 2.195199999999999929e-02 -2.517520999999999898e+00 3.853000000000000175e-02 4.037410000000000165e-01 4.155269999999999797e-01 -7.553300000000000292e-02 -1.430819999999999870e-01 -1.563569999999999960e-01 -9.450730000000000519e-01 -8.540759999999999463e-01 4.634889999999999843e-01 -3.316999999999999810e-02 -1.326610000000000011e-01
3.169040000000000190e-01 2.702209999999999890e-01 -5.521690000000000209e-01 -1.849606000000000083e+00 3.755260000000000264e-01 2.996150000000000202e-01 -4.880039999999999933e-01 1.719060000000000032e-01 4.548570000000000113e-01 -5.317089999999999872e-01 -1.540515000000000079e+00 1.325189999999999979e-01 6.758359999999999923e-01 3.438069999999999737e-01 -1.868660000000000043e-01 -5.194790000000000241e-01 9.026830000000000132e-01 -3.316299999999999804e-02 -8.004310000000000036e-01 -5.093529999999999447e-01 5.154619999999999758e-01 2.559953000000000145e+00 4.163403999999999883e+00 4.322678999999999938e+00 1.254931000000000019e+00 1.331118999999999941e+00 -7.044550000000000534e-01 1.468804999999999916e+00 1.702785999999999911e+00 3.424550000000000094e-01 8.686819999999999542e-01 -2.899939999999999740e-01 -3.358789999999999831e-01 1.468269999999999964e+00 1.142538999999999971e+00 7.516599999999999948e-01 5.303649999999999753e-01 3.679600000000000093e-01 2.942359999999999975e-01 1.163194999999999979e+00 6.419550000000000534e-01 -1.058740999999999932e+00 1.640979999999999939e-01 4.381700000000000039e-01 -7.322140000000000315e-01 -5.024170000000000025e-01 -5.178289999999999837e-01 1.502000000000000002e-01 -1.226002999999999954e+00 -8.020639999999999992e-01 1.228458999999999968e+00 -4.448469999999999924e-01 -4.124079999999999968e-01 6.278740000000000432e-01 -2.556151999999999980e+00 -3.358061000000000185e+00 -5.531209999999999738e+00 3.134060000000000179e-01 -2.691822999999999855e+00 3.930589999999999917e-01 -1.089370000000000061e-01 -4.521129999999999871e-01 -1.412214999999999998e+00 1.624839999999999895e-01 -1.476739999999999997e-01 1.983550000000000035e-01 -5.668649999999999523e-01 -4.775929999999999898e-01 -2.392670000000000075e-01 4.356119999999999992e-01 -3.769040000000000168e-01 2.335200000000000123e-02 -2.747310000000000030e-01 -3.711160000000000014e-01 7.948690000000000477e-01 -4.464219999999999855e-01 3.522310000000000163e-01 2.988700000000000245e-01 9.394900000000000473e-02 -9.257279999999999953e-01 -4.377309999999999812e-01 -7.259330000000000505e-01 8.185949999999999616e-01 1.253549999999999942e-01 -1.699630000000000030e-01 -6.821549999999999558e-01 8.110299999999999454e-02 1.500699999999999951e-02 1.567015000000000047e+00 -1.589599999999999902e-01 3.529749999999999832e-01 -3.658480000000000065e-01 -1.073080000000000006e-01 -6.329709999999999503e-01 -6.687389999999999723e-01 4.551999999999999935e-01
-1.292375000000000052e+00 -1.361736000000000057e+00 1.416789999999999994e-01 2.044559999999999989e-01 5.705649999999999888e-01 -7.203869999999999996e-01 1.119682000000000066e+00 9.606829999999999536e-01 4.766070000000000029e-01 1.059185999999999961e+00 1.942633999999999972e+00 -9.723089999999999788e-01 -4.636400000000000243e-02 -4.935629999999999740e-01 1.596281000000000061e+00 -2.108315000000000161e+00 -7.474281999999999648e+00 -9.966409999999999991e-01 1.277328000000000019e+00 1.096649999999999986e-01 9.325489999999999613e-01 -1.339657000000000098e+00 7.399759999999999671e-01 -1.451907000000000059e+00 -9.461589999999999723e-01 -1.968426000000000009e+00 1.122490999999999906e+00 -1.583132999999999901e+00 -4.811070000000000069e-01 -1.408357999999999999e+00 1.779890000000000083e-01 -1.038950000000000012e-01 -7.050399999999999723e-02 2.401959999999999928e-01 -2.153549999999999909e-01 2.535499999999999907e-02 1.527970999999999968e+00 -4.145599999999999979e-02 8.176809999999999912e-01 2.409626999999999963e+00 3.800200000000000106e-02 2.810252999999999890e+00 8.565469999999999473e-01 6.610332999999999792e+00 8.365000000000000213e-01 7.977070000000000549e-01 -1.225483000000000100e+00 -8.850299999999999834e-02 -3.977979999999999849e-01 -1.079042000000000057e+00 8.290180000000000327e-01 1.100899999999999969e-02 -5.590709999999999846e-01 2.745270000000000210e-01 -6.701920000000000099e-01 -1.036799999999999944e-01 3.080400000000000152e-02 -9.057500000000000273e-02 -3.207070000000000198e-01 -2.255639999999999867e-01 -1.144320000000000004e+00 1.711435000000000040e+00 -2.440269999999999939e+00 -2.586959999999999815e-01 2.153589999999999949e-01 -2.578210000000000224e-01 -7.961869999999999781e-01 2.451550000000000118e-01 -3.659299999999999775e-01 3.232539999999999858e-01 2.010089999999999932e-01 -6.302860000000000129e-01 1.575712000000000002e+00 8.338419999999999721e-01 7.388500000000000623e-02 3.013859999999999872e-01 -1.354440000000000088e-01 7.720559999999999645e-01 8.534899999999999431e-02 1.336025999999999936e+00 -2.499388000000000165e+00 2.262000000000000122e-01 2.907660000000000244e-01 1.569450000000000012e-01 1.279217999999999966e+00 -2.305760000000000032e-01 1.065789000000000097e+00 -3.988260000000000138e-01 -4.602390000000000092e-01 -5.890870000000000273e-01 -1.844850000000000101e+00 -5.832869999999999999e-01 7.523619999999999752e-01 -5.553719999999999768e-01 1.031898999999999900e+00 2.174000000000000151e-03
-3.987607999999999819e+00 -2.219301999999999886e+00 5.382983000000000295e+00 -1.398254000000000108e+00 1.067215000000000025e+00 8.170830000000000037e-01 -2.632090000000000263e-01 3.219609999999999972e-01 1.930759999999999976e-01 5.405200000000000282e-02 7.909800000000000164e-02 -2.057170999999999861e+00 1.970989999999999964e-01 -6.972580000000000444e-01 7.020070000000000476e-01 -2.741430000000000256e-01 -1.714790999999999954e+00 7.982860000000000511e-01 -2.108379999999999976e-01 1.035091999999999901e+00 1.957199999999999912e-02 -1.353366000000000069e+00 -3.622009999999999952e-01 -3.332100000000000062e-01 1.383796000000000026e+00 1.775674999999999892e+00 7.502919999999999590e-01 1.638319999999999999e+00 -1.756489999999999996e-01 -7.858629999999999782e-01 9.622400000000000397e-02 -1.697108999999999979e+00 2.495584000000000024e+00 -5.498600000000000015e-02 -1.713081000000000076e+00 -1.277787999999999924e+00 1.219269999999999937e-01 1.025568000000000035e+00 -1.429400000000000115e-01 2.046250999999999820e+00 -2.482619999999999827e+00 9.163520000000000554e-01 -3.784089999999999954e-01 4.397369999999999890e-01 8.892940000000000289e-01 -1.594999999999999890e-02 -1.020199999999999996e-01 9.795399999999999940e-02 -5.801699999999999635e-01 4.030429999999999846e-01 -5.104999999999999538e-01 -4.360760000000000192e-01 4.242219999999999880e-01 1.576416000000000039e+00 5.849790000000000267e-01 -4.553300000000000125e-01 4.433830000000000271e-01 -2.211923000000000084e+00 -1.291068000000000104e+00 -8.804269999999999596e-01 -7.395110000000000294e-01 1.225611000000000006e+00 9.908109999999999973e-01 1.305300000000000037e-02 7.389710000000000445e-01 1.433190000000000019e-01 1.179370000000000002e-01 -8.895629999999999926e-01 -5.057899999999999618e-01 4.176030000000000020e-01 7.321990000000000443e-01 3.983380000000000254e-01 5.453129999999999811e+00 3.236200999999999883e+00 -4.207095999999999947e+00 8.218889999999999807e-01 -7.064559999999999729e-01 -1.319352000000000080e+00 -1.160068000000000099e+00 -4.623160000000000047e-01 -1.543298999999999976e+00 3.415989999999999860e-01 2.623530000000000029e-01 -1.489379999999999871e-01 -1.425049999999999928e-01 -2.559529999999999861e-01 -3.467549999999999799e-01 -5.805240000000000400e-01 2.585020000000000095e+00 -3.003211999999999993e+00 6.513050000000000228e-01 -8.279919999999999503e-01 -6.721099999999999852e-01 -1.516240000000000088e-01 7.007449999999999513e-01 1.119701999999999975e+00
2.724969000000000197e+00 -1.089320000000000010e-01 -7.789199999999999458e-01 8.354390000000000427e-01 -8.309609999999999497e-01 2.908200000000000229e-01 5.997789999999999511e-01 4.313739999999999797e-01 4.905889999999999973e-01 -3.626510000000000011e-01 9.709419999999999717e-01 9.035100000000000076e-02 -1.208234999999999948e+00 -5.228509999999999547e-01 1.193761000000000072e+00 -9.602319999999999744e-01 7.931289999999999729e-01 4.055799999999999961e-01 1.030009999999999953e-01 1.780435999999999908e+00 6.259320000000000439e-01 -4.695360000000000089e-01 -3.390090000000000048e-01 -2.725210000000000132e-01 -9.565519999999999579e-01 -5.102060000000000484e-01 -1.596778999999999948e+00 7.261339999999999462e-01 -3.114460000000000006e-01 8.802299999999999569e-01 -3.162699999999999956e-01 -2.661060000000000092e-01 -9.764100000000000557e-02 3.205660000000000176e-01 1.173818000000000028e+00 -1.512189999999999923e-01 -1.847711000000000103e+00 2.950743999999999811e+00 -3.065879999999999939e+00 8.490899999999999836e-02 -1.735389999999999988e+00 4.790981000000000378e+00 8.768629999999999480e-01 5.507800000000000196e-02 1.365363000000000104e+00 -4.709610000000000185e-01 -1.408806999999999920e+00 -2.313576999999999995e+00 -3.865100000000000202e-01 -4.312179999999999902e-01 -6.365629999999999900e-01 -4.098240000000000216e-01 -5.454719999999999569e-01 -2.172890000000000099e-01 3.000269999999999881e-01 1.687415000000000109e+00 6.474499999999999700e-02 6.577849999999999531e-01 -8.852290000000000436e-01 -2.340980000000000005e-01 8.541159999999999863e-01 7.320090000000000208e-01 -6.448840000000000128e-01 7.912390000000000256e-01 3.185120000000000173e-01 -2.106429999999999969e-01 -1.238097999999999921e+00 -1.019527999999999990e+00 1.906160000000000077e-01 4.591370000000000173e-01 -1.218687999999999994e+00 9.451690000000000369e-01 4.630319999999999991e-01 5.163130000000000219e-01 2.066280000000000061e-01 2.675420000000000020e-01 -1.509176000000000073e+00 -9.331970000000000542e-01 -4.644679999999999920e-01 -1.222998000000000030e+00 -8.278450000000000530e-01 -1.456290000000000084e+00 1.069999999999999944e-02 -7.287479999999999514e-01 -3.845140000000000224e-01 5.554620000000000113e-01 3.894270000000000231e-01 6.764799999999999980e-02 -3.968380000000000241e-01 1.443011000000000044e+00 6.325199999999999712e-01 7.779260000000000064e-01 -1.783929999999999960e-01 1.671469999999999900e-01 5.089960000000000040e-01 -4.850050000000000194e-01
8.424390000000000489e-01 -2.141369999999999940e-01 6.386030000000000317e-01 -6.945200000000000262e-01 1.085304000000000046e+00 -4.917469999999999897e-01 -4.902800000000000213e-02 7.557989999999999986e-01 1.335204000000000057e+00 -4.682839999999999780e-01 -1.070570999999999939e+00 -5.715179999999999705e-01 8.567110000000000003e-01 -4.815510000000000068e-01 -5.850910000000000277e-01 -3.124259999999999815e-01 -9.218849999999999545e-01 -9.854420000000000401e-01 -8.458400000000000640e-02 -9.985370000000000079e-01 -1.066942000000000057e+00 2.695600000000000079e-02 -2.895019999999999816e-01 1.024990000000000068e-01 1.597179999999999989e-01 -4.891700000000000215e-02 1.514649999999999885e-01 1.548807000000000045e+00 -2.036950000000000038e+00 -3.515550000000000064e-01 -3.770270000000000010e-01 1.618979999999999864e-01 -4.473369999999999846e-01 1.092942000000000080e+00 1.346692000000000000e+00 3.343610000000000193e-01 -2.421109999999999929e-01 -5.870779999999999887e-01 1.366900000000000059e-01 7.237999999999999642e-03 8.990219999999999878e-01 -5.121890000000000054e-01 -5.048219999999999930e-01 -9.609790000000000276e-01 -1.521795999999999927e+00 7.235470000000000512e-01 1.506899999999999906e-01 7.320550000000000113e-01 3.910950000000000260e-01 1.285479999999999956e-01 4.275109999999999744e-01 1.563190000000000135e-01 3.800910000000000122e-01 3.849000000000000338e-02 -6.006909999999999750e-01 -7.990840000000000165e-01 7.309949999999999504e-01 2.534669999999999979e-01 -1.940530000000000033e-01 1.801349999999999896e-01 -2.769610000000000127e-01 2.253547000000000189e+00 -1.611470000000000125e-01 3.308590000000000142e-01 -3.191109999999999780e-01 1.463270000000000126e-01 1.778540000000000121e-01 4.882999999999999841e-02 1.450899999999999933e-02 -7.383490000000000331e-01 1.227150000000000046e-01 -3.128750000000000142e-01 -5.435500000000000054e-02 6.970809999999999507e-01 4.636950000000000238e-01 -1.941350000000000020e-01 8.520640000000000436e-01 -9.017330000000000068e-01 -4.769531999999999883e+00 -5.207646000000000441e+00 5.704380000000000006e-01 9.607689999999999841e-01 7.535260000000000291e-01 -7.029009999999999980e-01 3.192581000000000113e+00 5.528038999999999703e+00 -1.784969999999999890e-01 -1.416153999999999913e+00 -1.447449999999999903e+00 6.783709999999999463e-01 -1.023644999999999916e+00 -5.627060000000000395e-01 1.641056999999999988e+00 1.085321999999999898e+00 9.763089999999999824e-01 4.683640000000000025e-01
-6.273940000000000072e-01 -1.973851000000000022e+00 -1.012836999999999987e+00 -5.707309999999999883e-01 -1.517333999999999961e+00 8.284799999999999942e-01 -1.787650000000000072e-01 -2.205749999999999933e-01 -6.335150000000000503e-01 -1.477940000000000087e-01 5.329599999999999893e-01 2.034509999999999930e-01 1.167551999999999923e+00 1.092589999999999950e+00 -6.596499999999999586e-01 4.435591999999999757e+00 -4.357052999999999621e+00 5.041256999999999877e+00 7.959690000000000376e-01 -9.092289999999999539e-01 -1.319800000000000084e+00 1.102584999999999926e+00 4.025850000000000262e-01 2.270679999999999921e-01 -9.493669999999999609e-01 1.060894999999999921e+00 1.166328999999999949e+00 -4.083959999999999813e-01 1.516260000000000108e-01 7.265999999999999889e-03 -4.604679999999999884e-01 6.479460000000000219e-01 -9.189279999999999671e-01 -2.944339999999999735e-01 3.618580000000000130e-01 6.516279999999999850e-01 1.201140000000000096e+00 -1.310284999999999922e+00 -5.245799999999999769e-02 1.046165000000000012e+00 2.058051999999999992e+00 -8.645890000000000519e-01 4.685389999999999833e-01 9.286969999999999947e-01 -1.419380000000000086e-01 1.899029999999999996e+00 7.833339999999999748e-01 -1.338713000000000042e+00 -6.667410000000000281e-01 5.521859999999999546e-01 1.508721999999999897e+00 1.499959999999999904e-01 6.217999999999999569e-03 -4.343350000000000266e-01 -1.253910000000000080e+00 5.843960000000000266e-01 1.003730000000000039e-01 3.230270000000000086e-01 9.221230000000000260e-01 -4.649880000000000124e-01 -4.908139999999999725e-01 2.288999999999999924e-01 1.639680000000000026e-01 -5.692570000000000130e-01 -2.506994000000000167e+00 1.039382000000000028e+00 8.306230000000000002e-01 -3.799379999999999979e-01 7.469080000000000163e-01 -4.108240000000000225e-01 6.832730000000000192e-01 9.327100000000000668e-02 -1.048674000000000106e+00 -1.218498999999999999e+00 1.079070000000000029e-01 -5.651784000000000141e+00 3.206910000000000149e+00 -2.803904000000000174e+00 -6.192889999999999784e-01 -6.867919999999999581e-01 8.626200000000000534e-01 -3.801599999999999979e-01 -2.406129999999999936e-01 -5.582009999999999472e-01 1.061682999999999932e+00 -6.683710000000000484e-01 -4.073999999999999844e-01 3.342740000000000156e-01 2.066807999999999979e+00 -3.255609999999999893e-01 -3.689109999999999889e-01 6.807119999999999838e-01 3.971779999999999755e-01 2.815369999999999817e-01 -9.625329999999999719e-01 -1.208990000000000009e+00
4.151699999999999835e-01 1.916517000000000026e+00 4.563110000000000221e-01 9.459130000000000038e-01 2.729730000000000212e-01 -4.182109999999999994e-01 -3.465420000000000167e-01 -4.676589999999999914e-01 -1.360055999999999932e+00 1.295284000000000102e+00 -3.521946999999999939e+00 -3.721366000000000174e+00 2.852000000000000021e-02 -8.572220000000000395e-01 3.482721999999999873e+00 6.251020000000000465e-01 -1.813086999999999893e+00 -1.140007999999999910e+00 9.899520000000000541e-01 -5.378230000000000510e-01 1.957710000000000006e-01 -7.060549999999999882e-01 9.669020000000000392e-01 5.790490000000000359e-01 -1.591529999999999889e-01 -1.172590000000000021e-01 1.362036000000000024e+00 5.782599999999999962e-01 2.085559999999999914e-01 -8.905490000000000350e-01 -4.255963999999999636e+00 3.628829000000000082e+00 3.757668999999999926e+00 1.295247000000000037e+00 4.731460000000000110e-01 1.170002999999999904e+00 -4.106069999999999998e-01 -4.353489999999999860e-01 2.713070000000000204e-01 -5.341679999999999762e-01 -3.706809999999999827e-01 -2.595189999999999997e-01 8.648820000000000396e-01 -8.957030000000000269e-01 1.478898000000000046e+00 -6.158109999999999973e-01 -6.710699999999999998e-02 -1.460461999999999927e+00 -2.054400000000000115e-01 1.889715000000000034e+00 -2.712594999999999867e+00 -9.194780000000000175e-01 1.430412999999999935e+00 -3.811459999999999848e-01 5.453299999999999814e-02 -7.233140000000000125e-01 9.877500000000000169e-01 2.400480000000000114e-01 -9.288210000000000077e-01 -7.570789999999999464e-01 -3.102300000000000058e-01 6.391459999999999919e-01 -1.142376000000000058e+00 -4.880309999999999926e-01 7.523990000000000400e-01 3.247959999999999958e+00 -5.449779999999999625e-01 1.283700999999999981e+00 -6.409519999999999662e-01 3.169109999999999983e-01 -9.486780000000000213e-01 -3.699634000000000089e+00 -1.635772999999999922e+00 -1.474572999999999912e+00 1.692240000000000133e-01 7.738030000000000186e-01 1.856289999999999885e-01 5.074999999999999512e-01 -4.271510000000000029e-01 7.033890000000000420e-01 -8.339410000000000434e-01 3.547440000000000038e-01 -2.084471999999999881e+00 -6.095519999999999827e-01 -6.030680000000000485e-01 1.152450000000000002e-01 9.959230000000000027e-01 1.409429999999999961e+00 -8.139389999999999681e-01 2.438470000000000082e-01 1.450954999999999995e+00 -3.880140000000000255e-01 9.674519999999999786e-01 5.236920000000000464e-01 1.979087000000000041e+00 1.540249999999999952e-01
2.944129999999999803e-01 -5.434800000000000048e-02 -3.475179999999999936e-01 -2.091823999999999906e+00 7.626220000000000221e-01 -2.473080000000000001e-01 5.892159999999999620e-01 -1.064350000000000018e-01 -1.125020000000000048e-01 2.009590999999999905e+00 9.842629999999999990e-01 1.108514999999999917e+00 -6.385960000000000525e-01 2.865900000000000114e-01 -2.510549999999999726e-01 6.043789999999999996e-01 -5.341679999999999762e-01 -2.046789999999999998e-01 -9.124980000000000313e-01 -1.678426999999999891e+00 -1.647830000000000128e-01 -7.580670000000000464e-01 -1.158524000000000109e+00 1.333844000000000030e+00 -4.449859999999999927e-01 4.878319999999999879e-01 -4.302469999999999906e-01 1.436352999999999991e+00 2.076739999999999975e-01 -3.582480000000000109e-01 1.163329999999999975e+00 7.089879999999999516e-01 -1.691799999999999901e-02 3.403799999999999881e-02 -9.069169999999999732e-01 -1.383035000000000014e+00 -9.392699999999999660e-02 3.207099999999999951e-01 3.895770000000000066e-01 -1.043215999999999921e+00 -9.579349999999999810e-01 1.776048000000000071e+00 5.569830000000000059e-01 -7.294869999999999965e-01 1.511001999999999956e+00 7.363636999999999766e+00 3.594396999999999842e+00 -1.315104999999999968e+00 -1.643439000000000094e+00 1.821280000000000010e+00 1.077911000000000064e+00 -2.516999999999999904e+00 -6.523139999999999494e-01 5.823139999999999983e-01 1.267973999999999934e+00 -3.156930000000000014e-01 -2.029440000000000133e-01 2.344019999999999992e-01 3.308740000000000014e-01 1.021320000000000006e-01 -6.972779999999999534e-01 -2.489879999999999871e-01 1.158887999999999918e+00 9.256100000000000438e-02 -8.423329999999999984e-01 5.272310000000000052e-01 -1.041498999999999953e+00 1.193697000000000008e+00 -3.654879999999999796e-01 -7.226359000000000421e+00 -6.004915999999999698e+00 7.736089999999999911e-01 1.023435000000000095e+00 1.151464999999999961e+00 -1.449394000000000071e+00 -1.195912000000000086e+00 -1.613570000000000004e-01 4.260249999999999870e-01 6.246479999999999810e-01 1.672716000000000092e+00 -4.457479999999999776e-01 -2.013570000000000082e-01 4.117700000000000249e-01 -6.039769999999999861e-01 -1.282358000000000109e+00 -1.316039999999999988e-01 -1.147272000000000070e+00 1.007025000000000059e+00 1.165670000000000039e-01 3.513370000000000104e-01 1.097066000000000097e+00 7.336080000000000378e-01 -1.045212999999999948e+00 2.389263999999999832e+00 -3.016059999999999852e-01 -1.026998999999999995e+00
8.788550000000000528e-01 6.901289999999999925e-01 4.611319999999999864e-01 3.392959999999999865e-01 -2.764710000000000223e-01 8.122890000000000388e-01 -8.334359999999999546e-01 4.336979999999999724e-01 8.416600000000000470e-02 1.418560000000000099e-01 2.556640000000000024e-01 -2.981380000000000141e-01 -7.377400000000000624e-02 -3.808920000000000083e-01 -1.064581999999999917e+00 -4.585326000000000235e+00 1.258999999999999897e+00 -8.024653999999999954e+00 2.314960000000000073e-01 -6.330059999999999576e-01 -7.157360000000000388e-01 4.548960000000000226e-01 1.027980000000000005e-01 1.888349000000000055e+00 1.547997999999999985e+00 6.825430000000000108e-01 -1.047300000000000036e-01 1.182943000000000078e+00 -5.378519999999999968e-01 -6.441139999999999644e-01 1.160185999999999940e+00 2.137277000000000093e+00 1.347231000000000067e+00 -3.933229999999999782e-01 -8.408010000000000206e-01 1.530186999999999964e+00 -1.709930000000000061e-01 1.730968000000000062e+00 -6.540049999999999475e-01 1.267580000000000096e-01 2.079799999999999982e-01 4.023829999999999907e-01 -1.249835999999999947e+00 3.457251999999999992e+00 2.296225000000000183e+00 4.193729999999999958e-01 -1.416392000000000095e+00 9.653920000000000279e-01 1.904830000000000134e-01 -4.720449999999999924e-01 1.688959999999999906e-01 -1.461065000000000058e+00 -1.156298999999999966e+00 9.738350000000000062e-01 9.311300000000000132e-02 1.085949999999999971e+00 -1.714471000000000078e+00 -9.244259999999999700e-01 6.978619999999999823e-01 -8.248739999999999961e-01 4.413876000000000133e+00 -2.308800000000000019e-01 6.783546000000000298e+00 -2.410009999999999930e-01 4.043390000000000040e-01 -1.361995000000000067e+00 -1.248013999999999957e+00 -3.254574999999999996e+00 -1.018002000000000073e+00 -5.655759999999999676e-01 4.315700000000000092e-01 7.492240000000000011e-01 -1.731669999999999876e-01 3.708629999999999982e-01 1.299659999999999982e-01 -2.834530000000000105e-01 4.218270000000000075e-01 1.054390000000000049e-01 -7.959000000000000796e-03 -1.080119999999999969e+00 6.936900000000000011e-02 9.804169999999999829e-01 2.350089999999999957e-01 -6.888950000000000351e-01 -1.706699999999999884e-01 -8.027299999999999713e-02 -8.682630000000000070e-01 2.256368999999999847e+00 -3.547445999999999877e+00 -5.494649999999999812e-01 -2.426572999999999869e+00 -2.105879999999999974e-01 -5.915240000000000498e-01 3.906800000000000272e-01 -4.870869999999999922e-01 3.558189999999999964e-01