4.763048969999999827e+00 0.000000000000000000e+00 0.000000000000000000e+00 1.078240000000000031e-04 2.650380425999999900e+00 0.000000000000000000e+00 5.094197019999999743e-01 -4.417325099999999671e-02 1.685525780600000090e+01
4.804322063999999948e+00 0.000000000000000000e+00 0.000000000000000000e+00 -4.068324400000000035e-02 2.780403848999999816e+00 0.000000000000000000e+00 -6.179961000000000308e-03 1.880505650000000029e-01 1.960576244800000012e+01
4.382114836000000402e+00 0.000000000000000000e+00 0.000000000000000000e+00 2.749903700000000048e-02 2.480154445000000152e+00 0.000000000000000000e+00 -1.306448789999999915e-01 -4.603551189999999793e-01 1.862635525900000033e+01
4.679977424999999691e+00 0.000000000000000000e+00 0.000000000000000000e+00 4.954217799999999922e-02 2.791012267999999796e+00 0.000000000000000000e+00 -2.311704729999999874e-01 -4.476134509999999955e-01 2.144583499899999879e+01
4.617478939999999810e+00 0.000000000000000000e+00 0.000000000000000000e+00 1.746273500000000006e-02 2.741640847000000214e+00 0.000000000000000000e+00 -1.811162300000000031e-02 -5.961334000000000077e-02 1.595072832700000021e+01
4.598808616000000349e+00 0.000000000000000000e+00 0.000000000000000000e+00 4.429165499999999922e-02 2.783991969000000122e+00 0.000000000000000000e+00 3.515404240000000180e-01 -5.404374130000000331e-01 2.065523861799999850e+01
4.421338056999999822e+00 0.000000000000000000e+00 0.000000000000000000e+00 -5.451483900000000243e-02 2.546339151000000189e+00 0.000000000000000000e+00 5.299003159999999824e-01 -3.449813899999999711e-02 2.201024458599999889e+01
4.679977424999999691e+00 0.000000000000000000e+00 0.000000000000000000e+00 4.954217799999999922e-02 2.791012267999999796e+00 0.000000000000000000e+00 -2.311704729999999874e-01 -4.476134509999999955e-01 2.144583499899999879e+01
4.587928878999999682e+00 0.000000000000000000e+00 0.000000000000000000e+00 -2.825489399999999915e-02 2.731581412999999792e+00 0.000000000000000000e+00 6.125887190000000038e-01 3.921885460000000267e-01 2.248822383599999952e+01
4.598808616000000349e+00 0.000000000000000000e+00 0.000000000000000000e+00 4.429165499999999922e-02 2.783991969000000122e+00 0.000000000000000000e+00 3.515404240000000180e-01 -5.404374130000000331e-01 2.065523861799999850e+01
4.598808616000000349e+00 0.000000000000000000e+00 0.000000000000000000e+00 4.429165499999999922e-02 2.783991969000000122e+00 0.000000000000000000e+00 3.515404240000000180e-01 -5.404374130000000331e-01 2.065523861799999850e+01
4.514708938000000060e+00 0.000000000000000000e+00 0.000000000000000000e+00 -3.851277100000000120e-02 2.733499543000000198e+00 0.000000000000000000e+00 -7.079558800000000651e-02 -5.160961920000000092e-01 2.101889283099999872e+01
4.679977424999999691e+00 0.000000000000000000e+00 0.000000000000000000e+00 4.954217799999999922e-02 2.791012267999999796e+00 0.000000000000000000e+00 -2.311704729999999874e-01 -4.476134509999999955e-01 2.144583499899999879e+01
4.469966012000000433e+00 0.000000000000000000e+00 0.000000000000000000e+00 -7.503619999999999691e-04 2.517268147999999872e+00 0.000000000000000000e+00 3.864843669999999953e-01 -2.188449490000000108e-01 1.348432623799999952e+01
4.742515681000000427e+00 0.000000000000000000e+00 0.000000000000000000e+00 3.266727000000000086e-03 2.665673668000000163e+00 0.000000000000000000e+00 1.091156000000000027e-03 4.125119890000000233e-01 1.980117581800000082e+01
4.679977424999999691e+00 0.000000000000000000e+00 0.000000000000000000e+00 4.954217799999999922e-02 2.791012267999999796e+00 0.000000000000000000e+00 -2.311704729999999874e-01 -4.476134509999999955e-01 2.144583499899999879e+01
4.632673428000000371e+00 0.000000000000000000e+00 0.000000000000000000e+00 2.106035000000000025e-03 2.675283026999999869e+00 0.000000000000000000e+00 -2.160896599999999890e-01 -4.340444840000000082e-01 1.585093064199999979e+01
4.421338056999999822e+00 0.000000000000000000e+00 0.000000000000000000e+00 -5.451483900000000243e-02 2.546339151000000189e+00 0.000000000000000000e+00 5.299003159999999824e-01 -3.449813899999999711e-02 2.201024458599999889e+01
4.587928878999999682e+00 0.000000000000000000e+00 0.000000000000000000e+00 -2.825489399999999915e-02 2.731581412999999792e+00 0.000000000000000000e+00 6.125887190000000038e-01 3.921885460000000267e-01 2.248822383599999952e+01
4.679977424999999691e+00 0.000000000000000000e+00 0.000000000000000000e+00 4.954217799999999922e-02 2.791012267999999796e+00 0.000000000000000000e+00 -2.311704729999999874e-01 -4.476134509999999955e-01 2.144583499899999879e+01
4.566847476999999600e+00 0.000000000000000000e+00 0.000000000000000000e+00 4.230542799999999909e-02 2.538049491999999852e+00 0.000000000000000000e+00 5.541270050000000058e-01 -2.048636219999999952e-01 2.047569501699999961e+01
4.598808616000000349e+00 0.000000000000000000e+00 0.000000000000000000e+00 4.429165499999999922e-02 2.783991969000000122e+00 0.000000000000000000e+00 3.515404240000000180e-01 -5.404374130000000331e-01 2.065523861799999850e+01
4.376221268000000109e+00 0.000000000000000000e+00 0.000000000000000000e+00 -1.944764499999999952e-02 2.385844427999999962e+00 0.000000000000000000e+00 -5.923584880000000163e-01 4.683181820000000273e-01 2.148899501000000001e+01
4.679977424999999691e+00 0.000000000000000000e+00 0.000000000000000000e+00 4.954217799999999922e-02 2.791012267999999796e+00 0.000000000000000000e+00 -2.311704729999999874e-01 -4.476134509999999955e-01 2.144583499899999879e+01
4.702401850000000216e+00 0.000000000000000000e+00 0.000000000000000000e+00 -3.294241500000000267e-02 2.662680234000000201e+00 0.000000000000000000e+00 4.587366050000000195e-01 7.673869599999999513e-02 1.695904792199999989e+01
4.598808616000000349e+00 0.000000000000000000e+00 0.000000000000000000e+00 4.429165499999999922e-02 2.783991969000000122e+00 0.000000000000000000e+00 3.515404240000000180e-01 -5.404374130000000331e-01 2.065523861799999850e+01
4.310889592999999742e+00 0.000000000000000000e+00 0.000000000000000000e+00 -1.643145500000000106e-02 2.405749858000000074e+00 0.000000000000000000e+00 3.770280959999999792e-01 -1.967203999999999897e-01 1.245095532000000027e+01
4.661789980000000000e+00 0.000000000000000000e+00 0.000000000000000000e+00 2.380865999999999885e-02 2.642485408000000202e+00 0.000000000000000000e+00 -3.248799000000000131e-02 8.585635299999999637e-02 1.771269036700000044e+01
4.514708938000000060e+00 0.000000000000000000e+00 0.000000000000000000e+00 -3.851277100000000120e-02 2.733499543000000198e+00 0.000000000000000000e+00 -7.079558800000000651e-02 -5.160961920000000092e-01 2.101889283099999872e+01
