-3.686754734000000155e+01
-3.432510470999999797e+01
-3.746714465000000160e+01
-3.605722046000000347e+01
-3.687926677000000097e+01
-3.732071462999999767e+01
-3.788593008000000140e+01
-3.611296164000000175e+01
-3.785454819000000271e+01
-3.764090617000000094e+01
-3.685420976000000337e+01
-3.753740607999999668e+01
-3.609904412000000207e+01
-3.975417027999999675e+01
-3.799426935999999699e+01
-3.589549097999999816e+01
-3.714992771000000005e+01
-3.612359310000000079e+01
-3.533163675000000126e+01
-3.359400514000000015e+01
-3.752360828999999853e+01
-3.733998047000000042e+01
-3.630734181999999777e+01
-3.606840569999999957e+01
-3.677681884999999795e+01
-3.775603755000000206e+01
-4.011587417999999872e+01
-3.745382292000000035e+01
-3.980730243000000002e+01
