-5.382852280000000178e+01
-5.324315906000000354e+01
-5.362287192000000147e+01
-5.275779291999999998e+01
-5.239596138999999653e+01
