-3.959148669000000353e+01
-3.913603029000000078e+01
-3.932664668999999691e+01
-3.762939595999999653e+01
-3.915074709000000297e+01
-3.971173114999999854e+01
-4.086185386999999736e+01
-3.937700616000000053e+01
-3.910433897000000059e+01
-4.032067880999999687e+01
