3.480750000000000233e-01 1.463419999999999999e-01 -5.060300000000000215e-02 -6.326530000000000209e-01 1.038362000000000007e+00 -5.676099999999999479e-01 2.451389999999999958e-01 -1.754050000000000054e-01 3.011360000000000148e-01 -6.272240000000000038e-01 4.208339999999999859e-01 1.638714999999999922e+00 -1.655969999999999942e-01 7.324939999999999785e-01 -3.152829999999999799e-01 1.498430000000000040e-01 -5.545590000000000241e-01 -1.892050000000000121e-01 7.097580000000000000e-01 -4.019440000000000235e-01 -4.013220000000000121e-01 -1.024958999999999953e+00 5.849860000000000060e-01 -3.358039999999999914e-01 -2.817013999999999907e+00 2.660319999999999907e-01 2.550488999999999784e+00 9.958999999999999797e-02 1.102189999999999975e-01 1.139550999999999981e+00 7.540069999999999828e-01 -1.799598000000000031e+00 -1.482930000000000081e+00 2.961036000000000001e+00 -3.677639999999999798e-01 -2.287135000000000140e+00
-1.747029999999999972e-01 -2.162290000000000045e-01 8.980909999999999727e-01 3.204711000000000087e+00 -1.495948000000000055e+00 2.170158999999999949e+00 1.674180000000000113e-01 9.327499999999999680e-01 3.017819999999999947e-01 -1.222519999999999996e-01 5.638919999999999488e-01 -4.015199999999999880e-01 -1.069723999999999897e+00 -1.215049999999999963e+00 1.164962000000000053e+00 -2.175844999999999807e+00 -8.432349999999999568e-01 -2.862492000000000036e+00 -1.984809999999999908e-01 1.519439999999999957e-01 -1.140399999999999921e-02 -6.808340000000000503e-01 1.231765999999999917e+00 -3.008872000000000213e+00 6.570920000000000094e-01 -8.361560000000000104e-01 -1.773450000000000026e-01 -6.623400000000000121e-02 1.826099999999999945e-02 -1.631064000000000069e+00 5.626520000000000410e-01 1.818894999999999929e+00 2.995988999999999791e+00 -1.037990000000000024e-01 -1.108900000000000025e-01 5.617149999999999643e-01
-1.752032999999999952e+00 -5.694810000000000150e-01 6.688370000000000148e-01 4.447400000000000242e-01 6.680679999999999952e-01 3.503510000000000235e-01 -9.676850000000000174e-01 -2.375259999999999871e-01 1.700534999999999908e+00 -6.129069999999999796e-01 -9.396290000000000475e-01 1.360109000000000012e+00 -6.210860000000000269e-01 -2.684239999999999959e-01 -5.457940000000000014e-01 6.528070000000000261e-01 1.094790000000000069e-01 -7.874100000000000543e-01 -7.179399999999999671e-02 7.106999999999999602e-03 -1.186533000000000060e+00 8.662990000000000412e-01 2.595290000000000097e-01 3.304699999999999999e-02 2.762879999999999781e-01 -6.736760000000000526e-01 -1.341970000000000107e+00 -1.399596000000000062e+00 -7.092680000000000096e-01 -2.430785999999999891e+00 3.655685000000000073e+00 1.210501000000000049e+00 2.455851000000000006e+00 -4.707169999999999965e-01 1.143318000000000056e+00 -2.762359999999999816e-01
-1.154735999999999985e+00 1.070260999999999907e+00 -9.161099999999999799e-01 6.390780000000000349e-01 6.724430000000000129e-01 -3.084160000000000235e-01 1.896980000000000055e-01 -2.225800000000000001e-01 8.554530000000000189e-01 7.309940000000000326e-01 -2.477006999999999959e+00 3.248989999999999934e-01 -2.105389999999999873e+00 6.088430000000000231e-01 1.537787000000000015e+00 3.270200000000000190e-02 -7.731499999999999484e-02 9.037309999999999510e-01 4.760969999999999924e-01 -1.302492999999999901e+00 7.669110000000000094e-01 -4.818999999999999950e-01 1.667561999999999989e+00 -1.133807000000000009e+00 3.002310000000000256e-01 4.043950000000000045e-01 -1.186241000000000101e+00 1.278629999999999933e+00 -1.150552999999999937e+00 -7.443670000000000009e-01 -1.376529999999999976e-01 -5.990919999999999579e-01 6.868140000000000356e-01 2.322480000000000100e-01 1.405535999999999897e+00 -7.866539999999999644e-01
-7.461259999999999559e-01 -2.678079999999999905e-01 2.669279999999999986e-01 2.762535000000000185e+00 -1.856824999999999948e+00 1.567806000000000033e+00 5.397880000000000456e-01 1.712312000000000056e+00 -3.610180000000000056e-01 -3.799399999999999999e-02 5.313820000000000210e-01 -3.321379999999999888e-01 -9.500070000000000459e-01 -1.809040999999999899e+00 1.094424000000000063e+00 -3.989719999999999933e-01 -3.826209999999999889e-01 -1.178031000000000050e+00 -3.750910000000000077e-01 8.011100000000000165e-02 2.642860000000000209e-01 -7.633099999999999608e-02 1.204058999999999990e+00 -1.413874000000000075e+00 5.921450000000000324e-01 -8.209830000000000183e-01 -1.716350000000000098e-01 -1.018385000000000096e+00 2.719000000000000063e-03 -2.517624999999999780e+00 2.475670000000000093e-01 1.595256000000000007e+00 1.815636999999999945e+00 -5.391280000000000516e-01 1.144000000000000052e-02 9.652389999999999581e-01
1.004490000000000105e+00 2.218700000000000117e-01 2.942130000000000023e-01 -5.666419999999999790e-01 -8.241900000000000615e-02 8.057599999999999485e-02 -1.320970999999999895e+00 -8.961130000000000484e-01 3.923550000000000093e-01 -5.572190000000000198e-01 -4.911710000000000242e-01 -6.244999999999999857e-02 -1.323400000000000132e-01 6.824409999999999643e-01 3.687389999999999834e-01 5.828449999999999465e-01 6.937339999999999618e-01 7.644990000000000396e-01 5.316549999999999887e-01 1.320559000000000038e+00 6.450050000000000505e-01 2.358645000000000103e+00 2.489694000000000074e+00 2.657809999999999895e-01 1.488226000000000049e+00 -8.981240000000000334e-01 -1.317652999999999963e+00 -1.051819000000000059e+00 3.413269999999999915e-01 -1.284396000000000093e+00 -2.730430999999999830e+00 -2.658462999999999798e+00 3.464749999999999774e-01 3.935600000000000209e-01 -7.233349999999999502e-01 -4.931450000000000000e-01
2.171826999999999952e+00 2.192054000000000169e+00 3.708000000000000185e-02 -6.210000000000000242e-04 -1.416189999999999949e-01 4.635569999999999968e-01 1.918739999999999890e-01 5.599619999999999598e-01 -9.714380000000000237e-01 2.955709999999999726e-01 4.560500000000000109e-01 -2.566390000000000060e-01 9.438499999999999668e-02 -8.722220000000000528e-01 -9.946949999999999958e-01 -6.739129999999999843e-01 -2.316590000000000038e-01 9.182890000000000219e-01 -2.284200999999999926e+00 -2.207996000000000070e+00 -3.942289999999999961e-01 1.035220000000000029e+00 3.901500000000000107e-02 -2.974959999999999827e-01 1.718619999999999870e-01 1.958179999999999921e-01 7.841120000000000312e-01 -1.252888999999999919e+00 -5.647599999999999842e-02 3.997569999999999735e-01 1.053982999999999892e+00 6.037040000000000184e-01 4.536959999999999882e-01 -8.030990000000000073e-01 -5.366309999999999691e-01 -1.419930000000000081e-01
9.786300000000000554e-02 6.827370000000000383e-01 -8.007499999999999618e-01 7.273779999999999690e-01 -7.571579999999999977e-01 4.261409999999999920e-01 -3.852140000000000009e-01 -3.087610000000000077e-01 6.418100000000000194e-02 -1.093029999999999974e-01 -3.259159999999999835e-01 2.654899999999999968e-02 3.107409999999999894e-01 -1.278009999999999979e-01 5.903380000000000294e-01 -2.043886000000000092e+00 -1.432649999999999979e+00 -3.406989999999999741e-01 -8.400000000000000522e-02 7.707880000000000287e-01 -1.304810000000000136e-01 1.696525999999999978e+00 1.546162000000000036e+00 -7.088050000000000184e-01 -3.528259999999999730e-01 5.506300000000000083e-02 6.189999999999999669e-02 -6.307519999999999794e-01 5.619189999999999463e-01 -1.041119999999999962e-01 1.343002999999999947e+00 -6.722209999999999575e-01 -6.093999999999999591e-03 -5.695289999999999520e-01 7.839000000000000482e-03 9.218309999999999560e-01
-3.987149999999999861e-01 -7.427150000000000141e-01 1.240456000000000003e+00 4.633019999999999916e-01 8.977899999999999769e-01 1.075253000000000014e+00 -8.210899999999999865e-01 -2.489240000000000064e-01 1.224504999999999955e+00 -1.124349000000000043e+00 -6.265900000000000636e-02 1.749681000000000042e+00 -8.778939999999999522e-01 -3.651340000000000141e-01 -1.623100000000000098e-01 9.565050000000000496e-01 5.608459999999999557e-01 -4.247150000000000092e-01 1.981189999999999896e-01 -8.222580000000000444e-01 -1.672857000000000038e+00 3.065109999999999779e-01 5.963600000000000012e-01 -1.805899999999999866e-02 -6.452809999999999935e-01 -3.198529999999999984e-01 -1.786969000000000030e+00 -1.718788999999999900e+00 -1.626014000000000070e+00 -3.113214000000000148e+00 3.648626000000000147e+00 1.258723000000000036e+00 2.511477000000000182e+00 1.305699999999999916e-02 8.738399999999999501e-01 -6.232490000000000530e-01
6.634729999999999794e-01 2.656939999999999857e-01 -1.383861999999999925e+00 1.861730000000000051e-01 5.172149999999999803e-01 -6.429700000000000693e-02 -1.805847999999999898e+00 6.701000000000000290e-01 8.726799999999999835e-02 1.372079999999999966e-01 1.133019999999999999e-01 -1.071649999999999964e-01 5.500720000000000054e-01 -9.403019999999999712e-01 5.016770000000000396e-01 1.926950000000000052e-01 -1.054804000000000075e+00 -5.271789999999999532e-01 5.533240000000000380e-01 -2.664909999999999890e+00 -3.294687999999999839e+00 9.654000000000000081e-02 5.521709999999999674e-01 -5.954279999999999573e-01 -4.456899999999999751e-01 -7.644100000000000339e-01 1.913297999999999943e+00 -8.494150000000000311e-01 2.192528999999999950e+00 2.051864999999999828e+00 1.057568000000000064e+00 3.608180000000000276e-01 5.251050000000000439e-01 -3.360989999999999811e-01 7.525990000000000180e-01 8.934060000000000334e-01
