4.451329999999999565e+00 3.329480000000000217e+00 7.528349999999999653e+00 2.702840000000000131e+00 3.064000000000000057e-01 2.465930000000000177e+00 5.772999999999999660e-02 1.822100000000000108e-01 4.744519999999999627e+00 3.454599999999999893e-01 7.968999999999999695e-02 1.535519999999999996e+01 3.519390000000000018e+00 2.017790000000000195e+00 6.336590000000000167e+00 3.382010000000000183e+00 1.624910000000000077e+00 9.153309999999999391e+00 3.888739999999999863e+00 1.994080000000000075e+00 8.097900000000000098e-01 1.945079999999999920e+00 2.682669999999999888e+00 8.038059999999999761e+00 2.523190000000000044e+00 4.024099999999999899e-01 4.852199999999999847e+00 1.148309999999999942e+00 1.911920000000000064e+00 6.093890000000000029e+00 1.451160000000000005e+00 2.024859999999999882e+00 6.078799999999999759e-01 5.777700000000000058e-01 4.323600000000000221e-01 9.447150000000000603e+00 1.383099999999999996e+00 2.021170000000000133e+00 3.744749999999999801e+00 2.983890000000000153e+00 2.684500000000000219e-01 1.555330000000000013e+01 3.820110000000000117e+00 1.878570000000000073e+00 3.539509999999999934e+00 2.386600000000000110e-01 3.416100000000000136e+00 2.230280000000000040e+00
3.825799999999999756e-01 2.700799999999999867e-01 6.249430000000000263e+00 1.586379999999999901e+00 7.604800000000000448e-01 1.010710000000000086e+01 3.071950000000000180e+00 2.301050000000000040e+00 1.696640000000000015e+01 1.807399999999999896e+00 2.018569999999999975e+00 5.107879999999999754e+00 3.132039999999999935e+00 1.540999999999999870e-01 3.366299999999999848e+00 4.265590000000000437e+00 2.124410000000000132e+00 4.745149999999999757e+00 3.764200000000000212e+00 4.879000000000000004e-01 8.869889999999999830e+00 4.257950000000000124e+00 6.991899999999999782e-01 1.836000000000000132e-02 1.535130000000000106e+00 2.017920000000000158e+00 2.676149999999999807e+00 2.857450000000000045e+00 2.419639999999999791e+00 1.064540000000000042e+01 2.430880000000000152e+00 2.327519999999999811e+00 7.995289999999999786e+00 7.140400000000000080e-01 3.130000000000000004e-01 3.658619999999999983e+00 7.012100000000000000e-01 2.487169999999999881e+00 1.735279999999999845e+01 4.559689999999999799e+00 2.490079999999999849e+00 1.520780000000000021e+00 2.072929999999999939e+00 1.250699999999999867e-01 7.784799999999999498e-01 3.015379999999999949e+00 5.057099999999999929e-01 6.286500000000000199e+00
4.999690000000000190e+00 2.421999999999999847e-02 2.450889999999999791e+00 3.876059999999999839e+00 1.310900000000000121e-01 5.396309999999999718e+00 2.864450000000000163e+00 1.361660000000000093e+00 9.726720000000000255e+00 2.708720000000000017e+00 2.026190000000000158e+00 6.229379999999999917e+00 3.434680000000000177e+00 1.921839999999999993e+00 3.750080000000000080e+00 2.515660000000000007e+00 3.008299999999999863e-01 1.630030000000000090e+00 1.490939999999999932e+00 2.207199999999999829e+00 1.501449999999999951e+00 1.071200000000000069e-01 1.794880000000000031e+00 6.396160000000000068e+00 3.844400000000000039e-01 1.320310000000000095e+00 9.780910000000000437e+00 6.574699999999999989e-01 1.822570000000000023e+00 3.902070000000000149e+00 3.580869999999999997e+00 7.058200000000000029e-01 1.462880000000000003e+01 4.205630000000000202e+00 2.196660000000000057e+00 1.444909999999999917e+00 4.945479999999999876e+00 3.520370000000000221e+00 8.140299999999999869e+00 4.816580000000000084e+00 3.495309999999999917e+00 1.054889999999999972e+01 1.568540000000000045e+00 1.191200000000000037e-01 4.673180000000000334e+00 4.569400000000000128e-01 3.672750000000000181e+00 2.319999999999999840e-02
1.738070000000000004e+00 1.391340000000000021e+00 4.312179999999999680e+00 5.293700000000000294e+00 2.930200000000000138e+00 2.774099999999999899e-01 3.098790000000000155e+00 3.509570000000000078e+00 5.204489999999999839e+00 9.749299999999999633e-01 1.177929999999999922e+00 1.565209999999999990e+00 4.238999999999999990e-01 1.365609999999999991e+00 6.672710000000000363e+00 2.743999999999999773e-01 3.337909999999999933e+00 4.887050000000000338e+00 1.533959999999999990e+00 3.650770000000000071e+00 8.185710000000000264e+00 4.453809999999999825e+00 3.103110000000000035e+00 7.347400000000000375e+00 2.794459999999999944e+00 1.477810000000000068e+00 6.673440000000000261e+00 2.167460000000000164e+00 2.862010000000000165e+00 2.714699999999999891e-01 3.881769999999999943e+00 1.106249999999999956e+00 1.012019999999999920e+00 4.574300000000000033e+00 3.144740000000000091e+00 2.687050000000000161e+00 4.362820000000000142e+00 1.476869999999999905e+00 4.193509999999999849e+00 4.866500000000000270e+00 3.592420000000000169e+00 9.765109999999999957e+00 8.475899999999999546e-01 1.367399999999999949e+00 9.896430000000000504e+00 2.146300000000000097e+00 3.265690000000000204e+00 3.053650000000000198e+00
4.347100000000000186e+00 1.641839999999999966e+00 9.182949999999999946e+00 3.793190000000000062e+00 3.529760000000000009e+00 5.245090000000000252e+00 2.718100000000000183e+00 3.631969999999999921e+00 8.936519999999999797e+00 2.335000000000000131e-01 1.617580000000000018e+00 5.742799999999999905e+00 2.794950000000000045e+00 3.785979999999999901e+00 4.873999999999999860e-02 3.710659999999999847e+00 1.083400000000000057e-01 2.763139999999999930e+00 1.942190000000000083e+00 2.029090000000000060e+00 9.583399999999999697e-01 1.289460000000000051e+00 8.251000000000000001e-02 2.265730000000000022e+00 4.351759999999999629e+00 1.989179999999999948e+00 6.632200000000000317e-01 5.132950000000000124e+00 2.228390000000000093e+00 3.146879999999999900e+00 1.300300000000000067e-01 7.409000000000000308e-02 1.369758999999999993e+01 1.794529999999999959e+00 3.819980000000000153e+00 6.561370000000000147e+00 1.228690000000000060e+00 2.946270000000000167e+00 1.180109999999999992e+01 3.072989999999999888e+00 1.885979999999999990e+00 7.000009999999999621e+00 4.846870000000000012e+00 7.940999999999999448e-02 7.610339999999999883e+00 2.045770000000000088e+00 1.558049999999999935e+00 4.238360000000000127e+00
3.112729999999999997e+00 3.301309999999999967e+00 2.206820000000000004e+00 4.365610000000000213e+00 2.008910000000000196e+00 4.433919999999999639e+00 3.039849999999999941e+00 1.292149999999999910e+00 7.474300000000000388e-01 2.615479999999999805e+00 3.467999999999999972e+00 5.394260000000000055e+00 1.275590000000000002e+00 1.855779999999999985e+00 6.902099999999999902e+00 1.774170000000000025e+00 1.711330000000000018e+00 4.000119999999999898e+00 1.508510000000000018e+00 3.701960000000000139e+00 1.601630000000000109e+01 5.097369999999999735e+00 2.337070000000000203e+00 8.958259999999999224e+00 9.867899999999999450e-01 1.364299999999999957e-01 8.280580000000000496e+00 3.912910000000000110e+00 2.277460000000000040e+00 6.872020000000000017e+00 3.549450000000000216e+00 4.674499999999999766e-01 8.539139999999999731e+00 2.035130000000000106e+00 2.197010000000000129e+00 9.620889999999999276e+00 2.292099999999999971e-01 4.007700000000000151e-01 2.889909999999999979e+00 3.438489999999999824e+00 2.894369999999999887e+00 1.585580000000000034e+01 2.313800000000000023e-01 2.252540000000000209e+00 1.439319999999999933e+00 1.143300000000000011e-01 1.207899999999999946e-01 5.718869999999999898e+00
4.919789999999999885e+00 2.031400000000000095e+00 9.319079999999999586e+00 4.395170000000000243e+00 2.106500000000000039e-01 5.747449999999999726e+00 4.228769999999999918e+00 1.144099999999999978e-01 8.458809999999999718e+00 5.335609999999999964e+00 2.224229999999999929e+00 6.864440000000000097e+00 1.775260000000000060e+00 3.122759999999999980e+00 1.323090000000000011e+01 3.745309999999999917e+00 3.873769999999999936e+00 3.013440000000000119e+00 5.409480000000000288e+00 1.975519999999999943e+00 1.959689999999999932e+00 1.411859999999999893e+00 3.653129999999999988e+00 2.572880000000000056e+00 2.833810000000000162e+00 1.440639999999999921e+00 1.119350000000000067e+00 5.030149999999999899e+00 2.358060000000000045e+00 4.333990000000000009e+00 5.197580000000000311e+00 4.124300000000000188e-01 5.643299999999999983e-01 1.271439999999999904e+00 3.562920000000000087e+00 5.779950000000000365e+00 2.502390000000000114e+00 2.223230000000000040e+00 8.621040000000000703e+00 2.916510000000000158e+00 1.928120000000000056e+00 6.105410000000000004e+00 1.005549999999999944e+00 2.839800000000000102e-01 8.318910000000000693e+00 2.311420000000000030e+00 1.593150000000000066e+00 3.852559999999999985e+00
3.536799999999999944e+00 3.128829999999999778e+00 1.792500000000000071e+01 3.705999999999999850e-01 9.917399999999999549e-01 7.324230000000000018e+00 3.059639999999999915e+00 1.363040000000000029e+00 1.651259999999999906e+01 1.859680000000000000e+00 9.756599999999999717e-01 1.624610000000000110e+00 2.835570000000000146e+00 2.884749999999999925e+00 1.013249999999999984e+00 1.165559999999999929e+00 2.589240000000000208e+00 8.853160000000000807e+00 1.211209999999999898e+00 2.970229999999999926e+00 5.769870000000000054e+00 2.301400000000000112e+00 6.840100000000000069e-01 1.011669999999999980e+01 4.490440000000000431e+00 5.219300000000000050e-01 9.631850000000000023e+00 1.459580000000000100e+00 9.445099999999999607e-01 1.840589999999999904e+01 4.179840000000000444e+00 6.608999999999999597e-02 5.186700000000000088e+00 3.459929999999999950e+00 2.247609999999999886e+00 8.619009999999999394e+00 2.609280000000000044e+00 1.602519999999999945e+00 4.368059999999999832e+00 4.395520000000000316e+00 9.740499999999999714e-01 1.512690000000000090e+00 3.004430000000000156e+00 1.382419999999999982e+00 6.660219999999999807e+00 2.153200000000000114e-01 1.758369999999999989e+00 3.858540000000000081e+00
1.692890000000000006e+00 1.247000000000000053e-01 6.310999999999999943e-02 2.972220000000000084e+00 1.887569999999999970e+00 3.801930000000000032e+00 4.213600000000000123e-01 1.901119999999999921e+00 1.248229999999999951e+00 1.711999999999999911e-01 1.821159999999999890e+00 3.716270000000000184e+00 2.398779999999999912e+00 3.419970000000000176e+00 8.200189999999999202e+00 1.077499999999999986e-01 3.805499999999999883e+00 5.308749999999999858e+00 5.421289999999999942e+00 3.575419999999999821e+00 7.884439999999999671e+00 2.807599999999999874e+00 2.138510000000000133e+00 1.053449999999999998e+00 4.334959999999999702e+00 5.485000000000000292e-02 9.983309999999999462e+00 4.080650000000000333e+00 1.726300000000000057e-01 6.124699999999999589e-01 4.407619999999999649e+00 3.611369999999999969e+00 3.161540000000000017e+00 9.317000000000000282e-02 1.510229999999999961e+00 9.351539999999999964e+00 1.693629999999999969e+00 3.837019999999999875e+00 2.624150000000000205e+00 1.042300000000000004e+00 1.840090000000000003e+00 6.679450000000000109e+00 3.788019999999999943e+00 1.430050000000000043e+00 7.094039999999999679e+00 2.570650000000000102e+00 3.753800000000000026e+00 5.221969999999999779e+00
3.617239999999999789e+00 2.905380000000000074e+00 1.773860000000000170e+01 5.822300000000000253e-01 1.183240000000000069e+00 7.311600000000000321e+00 2.853489999999999860e+00 1.071790000000000020e+00 1.646189999999999998e+01 1.373690000000000078e+00 9.354900000000000437e-01 2.011639999999999873e+00 2.752720000000000056e+00 2.661700000000000177e+00 8.156700000000000061e-01 1.383639999999999981e+00 2.747510000000000119e+00 9.103960000000000719e+00 1.620540000000000092e+00 3.112220000000000208e+00 5.876310000000000144e+00 2.445699999999999985e+00 6.784700000000000175e-01 1.025309999999999988e+01 4.729809999999999626e+00 5.746299999999999741e-01 9.761820000000000164e+00 1.382579999999999920e+00 8.549600000000000533e-01 1.824879999999999924e+01 3.768850000000000033e+00 3.436519999999999797e+00 5.152350000000000207e+00 3.623060000000000169e+00 2.438860000000000028e+00 8.629799999999999471e+00 2.525040000000000173e+00 1.820049999999999946e+00 4.297229999999999883e+00 4.257679999999999687e+00 1.142470000000000097e+00 1.398789999999999978e+00 3.217439999999999856e+00 1.410619999999999985e+00 6.699559999999999960e+00 2.110000000000000070e-02 1.694239999999999968e+00 3.621290000000000120e+00
5.220439999999999969e+00 3.540200000000000014e-01 2.659619999999999873e+00 4.300779999999999603e+00 2.489500000000000046e-01 5.137459999999999916e+00 3.622450000000000170e+00 1.335639999999999938e+00 9.772819999999999396e+00 2.514979999999999993e+00 2.038969999999999949e+00 5.954559999999999853e+00 3.132760000000000211e+00 2.051620000000000221e+00 3.329870000000000108e+00 2.855970000000000120e+00 1.303999999999999951e-02 2.371379999999999821e+00 1.432700000000000085e+00 1.817549999999999999e+00 1.253400000000000070e+00 4.062600000000000100e-01 1.535590000000000011e+00 7.010690000000000310e+00 4.717500000000000027e-01 1.789770000000000083e+00 9.293519999999999115e+00 9.142999999999999738e-02 2.343379999999999797e+00 4.017019999999999591e+00 3.127880000000000216e+00 6.039799999999999613e-01 1.518829999999999991e+01 4.385699999999999932e+00 1.965940000000000021e+00 6.829399999999999915e-01 4.603720000000000034e+00 3.648660000000000014e+00 8.013859999999999317e+00 4.411319999999999908e+00 2.990920000000000023e+00 1.104139999999999944e+01 1.848260000000000014e+00 3.799780000000000157e+00 4.458680000000000199e+00 1.868599999999999983e-01 8.301000000000000045e-02 3.771000000000000046e-02
3.544890000000000096e+00 3.263380000000000170e+00 1.800730000000000075e+01 2.566800000000000193e-01 8.881299999999999750e-01 7.322460000000000413e+00 3.150240000000000151e+00 1.507830000000000004e+00 1.652039999999999864e+01 1.989300000000000068e+00 1.113750000000000018e+00 1.622589999999999977e+00 2.947430000000000216e+00 2.857660000000000089e+00 1.079900000000000082e+00 9.693599999999999994e-01 2.461259999999999781e+00 8.698259999999999437e+00 1.087059999999999915e+00 2.905660000000000132e+00 5.769260000000000055e+00 2.135099999999999998e+00 7.299700000000000077e-01 1.005359999999999943e+01 4.533489999999999576e+00 5.004600000000000160e-01 9.595010000000000261e+00 1.501009999999999955e+00 9.964300000000000379e-01 1.847289999999999921e+01 4.364359999999999573e+00 8.938999999999999724e-02 5.164270000000000138e+00 3.444960000000000022e+00 2.277359999999999829e+00 8.717060000000000031e+00 2.657540000000000013e+00 1.468909999999999938e+00 4.266610000000000014e+00 4.478430000000000355e+00 8.997199999999999642e-01 1.565120000000000067e+00 2.790540000000000020e+00 1.331460000000000088e+00 6.576220000000000176e+00 3.043799999999999839e-01 1.793649999999999967e+00 3.951400000000000023e+00
1.681650000000000089e+00 1.870640000000000081e+00 1.115240000000000009e+00 2.707819999999999894e+00 3.891000000000000014e-02 2.726210000000000022e+00 5.034810000000000230e+00 2.108700000000000019e-01 7.658330000000000304e+00 3.442919999999999980e+00 1.544319999999999915e+00 6.464809999999999945e+00 3.086279999999999912e+00 3.685100000000000042e-01 3.521000000000000241e-01 1.347599999999999909e-01 1.698900000000000132e-01 2.469390000000000196e+00 2.370340000000000114e+00 3.428370000000000140e+00 7.884319999999999773e+00 4.001940000000000275e+00 1.993379999999999930e+00 8.644740000000000535e+00 2.372219999999999995e+00 3.431420000000000137e+00 5.334629999999999761e+00 4.201819999999999666e+00 2.122189999999999799e+00 1.374659999999999993e+00 1.229200000000000070e+00 1.979020000000000001e+00 9.394080000000000652e+00 5.070450000000000124e+00 5.827000000000000235e-02 4.848539999999999850e+00 1.150749999999999940e+00 1.896360000000000046e+00 3.825250000000000039e+00 6.858199999999999852e-01 3.612000000000000099e+00 1.393950000000000067e+01 9.261200000000000543e-01 1.647459999999999924e+00 6.925989999999999647e+00 3.696889999999999787e+00 1.737290000000000001e+00 4.126590000000000202e+00
2.607260000000000133e+00 3.263160000000000061e+00 2.188779999999999948e+00 5.151629999999999932e+00 1.008399999999999991e-01 7.667430000000000412e+00 4.042349999999999888e+00 1.985710000000000086e+00 3.949609999999999843e+00 3.929969999999999963e+00 1.253130000000000077e+00 1.618179999999999952e+00 4.174019999999999619e+00 3.250420000000000087e+00 5.188000000000000250e-02 3.918639999999999901e+00 1.499589999999999979e+00 1.740830000000000055e+01 6.779999999999999569e-03 3.511099999999999888e+00 2.701900000000000190e+00 1.290370000000000017e+00 1.712560000000000082e+00 4.076349999999999696e+00 3.851780000000000204e+00 2.055359999999999854e+00 6.902969999999999828e+00 4.315260000000000318e+00 1.963200000000000056e+00 9.257239999999999469e+00 1.362319999999999975e+00 1.339839999999999920e+00 1.368100000000000094e+00 2.680600000000000094e+00 6.361999999999999600e-02 5.368739999999999846e+00 2.409670000000000201e+00 7.692000000000000226e-02 8.391230000000000189e+00 2.323999999999999955e-01 3.658240000000000158e+00 5.340090000000000003e+00 1.177810000000000024e+00 2.734649999999999803e+00 9.772660000000000124e+00 1.462429999999999897e+00 1.954970000000000097e+00 7.159810000000000230e+00
4.460370000000000168e+00 1.639899999999999969e-01 5.771469999999999878e+00 3.780199999999999783e+00 3.357149999999999856e+00 6.608699999999999575e-01 1.581520000000000037e+00 2.129080000000000084e+00 3.872729999999999784e+00 3.477500000000000036e-01 1.895850000000000035e+00 1.084999999999999964e+00 1.799390000000000045e+00 3.672670000000000101e+00 8.157439999999999358e+00 3.143920000000000048e+00 2.307910000000000128e+00 6.367980000000000196e+00 4.229280000000000150e+00 1.383199999999999985e-01 7.790210000000000079e+00 9.261999999999999400e-02 2.316580000000000084e+00 6.518930000000000113e+00 7.900000000000000355e-01 3.651000000000000079e-02 2.874280000000000168e+00 3.506180000000000074e+00 1.920439999999999925e+00 8.765019999999999811e+00 1.484539999999999971e+00 3.525300000000000100e-01 5.721840000000000259e+00 1.479379999999999917e+00 1.316100000000000048e-01 3.107199999999999962e-01 7.485800000000000232e-01 1.564349999999999907e+00 9.019980000000000331e+00 4.580709999999999837e+00 1.976790000000000047e+00 3.593440000000000190e+00 3.133280000000000065e+00 3.858460000000000001e+00 3.791580000000000172e+00 2.846369999999999845e+00 1.310529999999999973e+00 1.703330000000000011e+00
1.606810000000000072e+00 1.345259999999999900e+00 4.163170000000000037e+00 5.404349999999999987e+00 3.194440000000000168e+00 3.367899999999999783e-01 3.056270000000000042e+00 3.329689999999999817e+00 5.150109999999999744e+00 1.095949999999999980e+00 1.113979999999999970e+00 1.464579999999999993e+00 2.004299999999999971e-01 1.256809999999999983e+00 6.405750000000000277e+00 2.326400000000000134e-01 3.315630000000000077e+00 5.104070000000000107e+00 1.615990000000000038e+00 3.470740000000000158e+00 8.606970000000000454e+00 4.652289999999999814e+00 3.383680000000000021e+00 7.399890000000000079e+00 2.869130000000000180e+00 1.433670000000000000e+00 6.612339999999999662e+00 2.433720000000000105e+00 2.870670000000000055e+00 3.211200000000000165e-01 3.821720000000000006e+00 1.334649999999999892e+00 1.096729999999999983e+00 4.692140000000000200e+00 3.483410000000000117e+00 2.408850000000000158e+00 4.401119999999999699e+00 1.414909999999999890e+00 4.388810000000000322e+00 4.751570000000000071e+00 3.079429999999999890e+00 9.652990000000000848e+00 5.451200000000000490e-01 1.458169999999999966e+00 1.023259999999999970e+01 2.053510000000000169e+00 3.274490000000000123e+00 2.660130000000000106e+00
1.610409999999999897e+00 1.979119999999999990e+00 6.638440000000000119e+00 2.931700000000000195e+00 3.796269999999999811e+00 5.059619999999999784e+00 3.663339999999999819e+00 3.520080000000000098e+00 7.958700000000000330e+00 4.742989999999999817e+00 1.877800000000000025e-01 2.279370000000000118e+00 1.634599999999999942e-01 3.640670000000000073e+00 5.845399999999999707e+00 1.402870000000000061e+00 1.755800000000000138e-01 3.871999999999999748e-02 4.419410000000000061e+00 3.492750000000000021e+00 1.352239999999999931e+01 1.250729999999999897e+00 1.942890000000000006e+00 4.190240000000000187e+00 2.680219999999999825e+00 1.930900000000000061e+00 9.184760000000000701e+00 1.172809999999999908e+00 3.748619999999999841e+00 8.205519999999999925e+00 1.861569999999999947e+00 3.065100000000000047e-01 2.415939999999999976e+00 5.307430000000000092e+00 1.416690000000000005e+00 1.011079999999999934e+01 4.007430000000000270e+00 2.144029999999999880e+00 3.592049999999999965e+00 2.875099999999999878e-01 2.004799999999999915e+00 1.240620000000000056e+00 2.726640000000000175e+00 2.153669999999999973e+00 1.153769999999999962e+00 4.384730000000000238e+00 1.785449999999999982e+00 6.786940000000000417e+00
4.504269999999999996e+00 5.024199999999999777e-01 5.528190000000000381e+00 3.776260000000000172e+00 3.183269999999999822e+00 4.269100000000000117e-01 1.475579999999999892e+00 1.917100000000000026e+00 4.186869999999999870e+00 2.619400000000000062e-01 2.300800000000000178e+00 1.269760000000000000e+00 1.828359999999999985e+00 3.495499999999999829e+00 8.045059999999999434e+00 3.164439999999999920e+00 1.980420000000000069e+00 6.313550000000000217e+00 4.428490000000000038e+00 2.375999999999999987e-02 8.047929999999999140e+00 1.564300000000000135e-01 2.312889999999999890e+00 6.183150000000000368e+00 4.930100000000000038e-01 1.344200000000000117e-01 2.659510000000000041e+00 3.522339999999999804e+00 1.959179999999999922e+00 8.765370000000000772e+00 1.490099999999999980e+00 3.675999999999999823e-01 5.655170000000000030e+00 1.387820000000000054e+00 1.519899999999999862e-01 4.477700000000000014e-01 8.310999999999999499e-01 1.511929999999999996e+00 9.188019999999999854e+00 4.492200000000000415e+00 2.149820000000000064e+00 3.599089999999999900e+00 3.295110000000000205e+00 1.782799999999999940e-01 3.726820000000000022e+00 2.896640000000000104e+00 1.087779999999999969e+00 1.961649999999999894e+00
3.326700000000000212e-01 2.091200000000000170e+00 6.844699999999999562e+00 2.525599999999999845e+00 2.462419999999999831e+00 8.890150000000000219e+00 4.354129999999999612e+00 5.211099999999999621e-01 8.078580000000000538e+00 5.033499999999999641e-01 1.968399999999999872e-01 2.834490000000000176e+00 3.628649999999999931e+00 3.778200000000000003e+00 3.439299999999999802e+00 2.198010000000000019e+00 9.764899999999999691e-01 1.693089999999999984e+00 3.043719999999999981e+00 2.617799999999999905e+00 6.482470000000000176e+00 1.686800000000000077e+00 2.934379999999999988e+00 3.943400000000000238e-01 1.471759999999999957e+00 8.125000000000000278e-02 7.822659999999999947e+00 4.756020000000000358e+00 3.072579999999999867e+00 8.423500000000000432e-01 5.101890000000000036e+00 2.580890000000000128e+00 9.307100000000000151e+00 2.168769999999999865e+00 5.939799999999999525e-01 5.495619999999999727e+00 4.863410000000000011e+00 1.821700000000000097e+00 4.279270000000000351e+00 1.700010000000000021e+00 2.342919999999999892e+00 3.839890000000000025e+00 4.912910000000000110e+00 2.969000000000000111e-02 5.781970000000000276e+00 1.850700000000000123e-01 1.031320000000000014e+00 1.683621000000000123e+01
9.750000000000000333e-02 3.525900000000000145e-01 2.678650000000000198e+00 4.497889999999999944e+00 2.890199999999999991e-01 5.115429999999999922e+00 3.747009999999999952e+00 1.247279999999999944e+00 9.726630000000000109e+00 2.620659999999999989e+00 2.057659999999999823e+00 5.822729999999999961e+00 3.045580000000000176e+00 1.960779999999999967e+00 3.465710000000000068e+00 2.866870000000000029e+00 6.219999999999999835e-02 2.259349999999999969e+00 1.356929999999999970e+00 1.735540000000000083e+00 1.146870000000000056e+00 3.820799999999999752e-01 1.552249999999999908e+00 7.034559999999999924e+00 5.908799999999999608e-01 1.939699999999999980e+00 9.162340000000000373e+00 1.839999999999999969e-02 2.373650000000000038e+00 4.133429999999999715e+00 2.819370000000000154e+00 4.178399999999999892e-01 1.530599999999999916e+01 4.397100000000000009e+00 2.132810000000000095e+00 6.519200000000000550e-01 4.429310000000000080e+00 3.527320000000000011e+00 8.055210000000000647e+00 4.301319999999999588e+00 2.967569999999999819e+00 1.111219999999999963e+01 1.856659999999999977e+00 8.508000000000000285e-02 4.480010000000000048e+00 2.594500000000000139e-01 1.170599999999999974e-01 7.216999999999999804e-02
1.880319999999999991e+00 2.282210000000000072e+00 3.924380000000000202e+00 1.212229999999999919e+00 1.824740000000000029e+00 6.649399999999999977e+00 8.801600000000000534e-01 1.527919999999999945e+00 9.004419999999999646e+00 2.461710000000000065e+00 1.042799999999999977e-01 7.790840000000000209e+00 5.191200000000000259e+00 3.726939999999999920e+00 5.309949999999999726e+00 5.199880000000000280e+00 3.711450000000000138e+00 7.687479999999999869e+00 9.197499999999999565e-01 3.370299999999999963e-01 2.536760000000000126e+00 3.699939999999999785e+00 1.494709999999999983e+00 9.083040000000000447e+00 2.519000000000000128e+00 3.032500000000000195e-01 5.207939999999999792e+00 3.985219999999999985e+00 1.820840000000000014e+00 6.644140000000000157e+00 2.247250000000000192e+00 2.204089999999999883e+00 1.427030000000000021e+00 3.280499999999999972e+00 8.623999999999999722e-02 2.934849999999999959e+00 4.974560000000000315e+00 1.773339999999999916e+00 3.786119999999999930e+00 6.411400000000000432e-01 2.740240000000000009e+00 1.911700000000000088e+01 4.900500000000000078e+00 1.963929999999999954e+00 1.154369999999999896e+00 3.024259999999999948e+00 2.076900000000000135e-01 3.266700000000000159e-01
3.455029999999999824e+00 2.432119999999999838e+00 7.496699999999999475e-01 2.346639999999999837e+00 2.742649999999999810e+00 3.467189999999999994e+00 2.242000000000000104e-01 7.193500000000000449e-01 9.516019999999999257e+00 4.185870000000000424e+00 2.695310000000000095e+00 5.305069999999999730e+00 1.765439999999999898e+00 2.483519999999999950e+00 1.452820000000000000e+01 8.641100000000000447e-01 6.535699999999999843e-01 4.460340000000000416e+00 2.632179999999999964e+00 1.077139999999999986e+00 9.730909999999999727e+00 3.826220000000000176e+00 2.675429999999999975e+00 7.997060000000000279e+00 5.005489999999999995e+00 2.845860000000000056e+00 2.503309999999999924e+00 1.717599999999999960e-01 6.103699999999999681e-01 7.111049999999999649e+00 1.702720000000000011e+00 2.897759999999999891e+00 8.548260000000000858e+00 2.805670000000000108e+00 4.162899999999999934e-01 6.301540000000000141e+00 3.043930000000000025e+00 5.716200000000000170e-01 1.535289999999999999e+01 1.274119999999999919e+00 2.394229999999999858e+00 6.265010000000000190e+00 6.679800000000000182e-01 3.060160000000000213e+00 2.475400000000000100e-01 1.881539999999999990e+00 9.778000000000000025e-01 2.104190000000000005e+00
2.374260000000000037e+00 3.663609999999999811e+00 2.813790000000000013e+00 4.305699999999999861e+00 2.027439999999999909e+00 4.155170000000000030e+00 3.144060000000000077e+00 1.606710000000000083e+00 1.844359999999999999e+00 3.147650000000000059e+00 3.794929999999999914e+00 5.516350000000000087e+00 1.589939999999999909e+00 1.989300000000000068e+00 6.483909999999999840e+00 1.852400000000000047e+00 1.576629999999999976e+00 4.098539999999999850e+00 2.184940000000000104e+00 1.549730000000000052e+00 1.598620000000000019e+01 4.721330000000000027e+00 2.620309999999999917e+00 9.281200000000000117e+00 6.381900000000000350e-01 2.086699999999999944e-01 7.788960000000000328e+00 4.013589999999999769e+00 1.793630000000000058e+00 6.628009999999999735e+00 3.210830000000000073e+00 5.439500000000000446e-01 8.691060000000000230e+00 1.819439999999999946e+00 2.579540000000000166e+00 9.134270000000000778e+00 5.194740000000000357e+00 5.348500000000000476e-01 2.524680000000000035e+00 3.190999999999999837e+00 3.562289999999999957e+00 1.630859999999999843e+01 6.854799999999999782e-01 2.436139999999999972e+00 1.390779999999999905e+00 5.397100000000000231e-01 3.738070000000000004e+00 5.229840000000000266e+00
4.935209999999999653e+00 1.915300000000000058e-01 2.445530000000000204e+00 3.845909999999999940e+00 1.971799999999999942e-01 5.319819999999999993e+00 3.016309999999999825e+00 1.366489999999999982e+00 9.758279999999999177e+00 2.579460000000000086e+00 1.999190000000000023e+00 6.203839999999999577e+00 3.422740000000000116e+00 1.908490000000000020e+00 3.576179999999999914e+00 2.544579999999999842e+00 2.131399999999999961e-01 1.826500000000000012e+00 1.628069999999999906e+00 2.165220000000000145e+00 1.494879999999999987e+00 2.680899999999999950e-01 1.712290000000000090e+00 6.571550000000000225e+00 3.538200000000000234e-01 1.364239999999999897e+00 9.720520000000000493e+00 5.284100000000000463e-01 1.891240000000000032e+00 3.914579999999999949e+00 3.528109999999999857e+00 7.145899999999999475e-01 1.472289999999999921e+01 4.274390000000000356e+00 2.075340000000000185e+00 1.311989999999999990e+00 4.911730000000000373e+00 3.617900000000000116e+00 8.087650000000000006e+00 4.779469999999999885e+00 3.392770000000000064e+00 1.069350000000000023e+01 1.651380000000000070e+00 1.064999999999999974e-01 4.592699999999999783e+00 3.456000000000000183e-01 3.704689999999999817e+00 1.563530000000000086e+01
2.839900000000000202e-01 3.636300000000000088e-01 2.650020000000000042e+00 4.623359999999999914e+00 3.920100000000000251e-01 5.158109999999999751e+00 3.829969999999999875e+00 1.140709999999999891e+00 9.668509999999999494e+00 2.750189999999999912e+00 2.071419999999999817e+00 5.743479999999999919e+00 2.981619999999999937e+00 1.859199999999999964e+00 3.622269999999999879e+00 2.874979999999999869e+00 1.140800000000000008e-01 2.033170000000000144e+00 1.366449999999999942e+00 1.762669999999999959e+00 1.077069999999999972e+00 3.440500000000000225e-01 1.570570000000000022e+00 6.936980000000000146e+00 7.355899999999999661e-01 2.101459999999999884e+00 9.124359999999999360e+00 1.772999999999999923e-02 2.270449999999999857e+00 4.245020000000000238e+00 2.530089999999999950e+00 2.011000000000000010e-01 1.545199999999999996e+01 4.305489999999999817e+00 2.267999999999999794e+00 6.754599999999999493e-01 4.255080000000000418e+00 3.375830000000000108e+00 8.082050000000000622e+00 4.212480000000000224e+00 2.986250000000000071e+00 1.115329999999999977e+01 1.837350000000000039e+00 2.035299999999999887e-01 4.536100000000000243e+00 3.385600000000000276e-01 1.374499999999999889e-01 6.532000000000000306e-02