-5.143652200999999735e+01
-5.058655581000000012e+01
-4.760860820999999987e+01
-5.090216714999999681e+01
-5.001158649999999994e+01
-4.964528660999999943e+01
-5.007859524999999934e+01
-4.787676033999999703e+01
-5.079458942000000121e+01
-4.781585553000000033e+01
-4.812225794999999806e+01
-4.722231105000000184e+01
-5.232409147999999988e+01
-5.093073906000000051e+01
-5.053035669999999868e+01
-5.004855566999999894e+01
-5.144069753000000134e+01
-4.953935556999999790e+01
-5.057289128000000034e+01
-4.866331382999999988e+01
-5.104007442000000339e+01
-4.998096390999999983e+01
-5.036328239000000195e+01
-4.862154679999999729e+01
-4.830070650999999771e+01
-5.246324821000000327e+01
-5.118670431999999693e+01
-4.946885678000000297e+01
-4.919644096999999761e+01
-5.170014608000000322e+01
-5.097565205000000077e+01
-4.810063820999999962e+01
-4.754655970000000309e+01
-4.808876338999999689e+01
-4.816080264000000000e+01
-5.029324615000000165e+01
-5.024569561999999934e+01
-4.871973650999999705e+01
-5.050312385000000148e+01
-4.990107891000000251e+01
-4.968900976999999841e+01
-5.139641257000000252e+01
-4.838408629999999988e+01
-5.183614645000000110e+01
-5.006846570999999813e+01
-5.115179696999999948e+01
-4.703957327999999904e+01
-5.104886152000000266e+01
-5.064168614999999818e+01
-4.868871310000000108e+01
-5.179554601000000247e+01
-4.854749027999999811e+01
-4.891308054999999655e+01
-4.660985782000000199e+01
-4.792705163000000113e+01
-4.973396366000000057e+01
-5.132140009999999819e+01
-5.026620951000000304e+01
-4.924802782999999806e+01
-4.920408172999999863e+01
-5.049939992000000188e+01
-4.961388515000000154e+01
-5.002846988000000295e+01
-5.071698797999999897e+01
-4.808548626999999698e+01
-5.255598785000000106e+01
-4.973088732000000078e+01
-5.064700127999999779e+01
-4.967214006999999754e+01
-4.784950613000000175e+01
-5.060461740000000219e+01
-5.058276371000000182e+01
-4.833560388000000074e+01
-5.085712575000000157e+01
-4.625280787999999887e+01
-5.015121479999999821e+01
-4.819625337000000087e+01
-5.054638880000000256e+01
-4.976124451999999820e+01
-5.063058439999999649e+01
-4.733395462000000009e+01
-4.913591290000000100e+01
-5.030992320000000007e+01
