7.379223147000000260e+00 0.000000000000000000e+00 0.000000000000000000e+00 -1.920515740000000027e-01 7.404712046000000214e+00 0.000000000000000000e+00 1.267834409999999967e-01 -1.592682470000000017e-01 7.296631357999999956e+00
