5.867028029000000089e+00 0.000000000000000000e+00 0.000000000000000000e+00 -1.280922339999999993e-01 5.860168064999999871e+00 0.000000000000000000e+00 -1.274230849999999915e-01 -1.818639800000000084e-01 5.958551938000000270e+00
5.954922890999999829e+00 0.000000000000000000e+00 0.000000000000000000e+00 1.252722199999999897e-01 6.040093148999999606e+00 0.000000000000000000e+00 -1.459832179999999979e-01 7.812179599999999335e-02 5.857890274999999924e+00
