-7.356100000000000139e-02 -3.508109999999999840e-01 -6.547429999999999639e-01 6.650000000000000095e-04 7.060229999999999562e-01 1.084090000000000054e-01 -6.460160000000000347e-01 3.375159999999999827e-01 1.987760000000000082e-01 1.051012000000000057e+00 -6.391909999999999537e-01 5.017589999999999550e-01 -6.189339999999999842e-01 -1.318594999999999962e+00 5.944240999999999886e+00 2.531630000000000269e-01 -6.017749999999999488e-01 7.500130000000000408e-01 -8.021420000000000217e-01 4.331490000000000062e-01 4.716890000000000249e-01 -9.039000000000000160e-03 -1.104467000000000088e+00 -2.811029999999999918e-01 -1.618580000000000019e-01 -2.271870000000000001e-01 1.952760000000000051e-01 2.823850000000000193e+00 1.310715000000000074e+00 -2.494139999999999968e-01 -1.176379999999999981e+00 -6.139529999999999710e-01 -5.915945999999999927e+00 -1.214587000000000083e+00 -1.117950000000000055e-01 1.554810000000000081e-01 -1.121377000000000068e+00 -1.208729999999999943e-01 -1.365361000000000047e+00 1.167000000000000069e-03 9.282219999999999915e-01 7.290339999999999598e-01 6.315399999999999903e-01 1.139891999999999905e+00 -6.155760000000000121e-01 1.062499000000000082e+00 2.331310000000000049e-01 2.746499999999999983e-02
-4.837110000000000021e+00 -3.785134999999999916e+00 3.244260999999999839e+00 -1.839055000000000106e+00 1.441969000000000056e+00 -1.599399999999999933e+00 5.015960000000000418e-01 -5.714449999999999807e-01 3.654359999999999831e-01 -1.246822000000000097e+00 -1.297587999999999964e+00 -7.673569999999999558e-01 1.610076000000000063e+00 -3.552660000000000262e-01 -5.650009999999999755e-01 -1.137490000000000029e-01 3.848420000000000174e-01 2.502794999999999881e+00 1.447912000000000088e+00 -5.366600000000000259e-01 2.769439000000000206e+00 -3.614899999999999780e-01 -3.084200000000000136e-02 -1.100590000000000040e-01 4.638815000000000133e+00 5.167567000000000021e+00 -2.685868999999999840e+00 7.566709999999999825e-01 4.958819999999999895e-01 4.288620000000000210e-01 1.053984000000000032e+00 -9.981649999999999689e-01 -2.094239999999999990e-01 -5.539439999999999920e-01 -8.960600000000000509e-02 1.345800000000000052e-01 -1.310978999999999894e+00 4.914109999999999867e-01 -7.929720000000000102e-01 3.277809999999999890e-01 6.570080000000000364e-01 -2.438858999999999888e+00 4.788439999999999919e-01 6.024190000000000378e-01 4.921479999999999744e-01 -5.525299999999999656e-01 -1.576389999999999958e+00 -7.685790000000000122e-01
