4.357776531999999925e+00 0.000000000000000000e+00 0.000000000000000000e+00 -1.168933999999999945e-02 2.591317023000000219e+00 0.000000000000000000e+00 2.379979200000000017e-02 4.663821200000000111e-01 2.191870635100000086e+01
4.359862666999999803e+00 0.000000000000000000e+00 0.000000000000000000e+00 2.274554200000000054e-02 2.594947990000000093e+00 0.000000000000000000e+00 2.680883689999999930e-01 1.954703040000000114e-01 1.731068625300000008e+01
4.136406147999999838e+00 0.000000000000000000e+00 0.000000000000000000e+00 -6.395293000000000505e-02 2.482343098999999942e+00 0.000000000000000000e+00 -5.504826179999999791e-01 -7.095019800000000598e-02 2.287462697300000158e+01
4.126357600000000403e+00 0.000000000000000000e+00 0.000000000000000000e+00 5.971619100000000180e-02 2.449960620999999783e+00 0.000000000000000000e+00 -2.290211309999999889e-01 -3.957793139999999932e-01 1.931586982800000030e+01
4.256398348000000276e+00 0.000000000000000000e+00 0.000000000000000000e+00 5.811344100000000179e-02 2.554965409999999881e+00 0.000000000000000000e+00 2.264960850000000137e-01 -4.486521640000000199e-01 1.973615599600000081e+01
4.366445479000000240e+00 0.000000000000000000e+00 0.000000000000000000e+00 2.536527400000000015e-02 2.712623906000000140e+00 0.000000000000000000e+00 -1.974917949999999978e-01 5.521968670000000357e-01 1.996102380600000004e+01
4.040394885000000436e+00 0.000000000000000000e+00 0.000000000000000000e+00 4.016765800000000192e-02 2.454892183000000117e+00 0.000000000000000000e+00 1.900785839999999949e-01 4.463571199999999961e-01 1.897803823299999948e+01
4.001675331000000391e+00 0.000000000000000000e+00 0.000000000000000000e+00 -4.560960999999999661e-03 2.385138480999999810e+00 0.000000000000000000e+00 -2.215366599999999894e-02 1.858412339999999940e-01 1.474945289999999964e+01
4.289029403999999879e+00 0.000000000000000000e+00 0.000000000000000000e+00 4.633804799999999974e-02 2.552185471000000039e+00 0.000000000000000000e+00 4.828242030000000073e-01 -5.683443929999999478e-01 1.989746425899999949e+01
