7.360200000000000076e-01 4.996300000000000185e-01 1.201469999999999949e+01 5.816400000000000459e-01 1.872689999999999966e+00 4.167379999999999640e+00 2.767759999999999998e+00 2.604709999999999859e+00 1.082670000000000066e+01 1.539269999999999916e+00 2.323910000000000142e+00 3.434300000000000130e-01 3.389390000000000125e+00 2.505009999999999959e+00 2.164960000000000218e+00 1.338470000000000049e+00 1.217249999999999943e+00 2.463099999999999845e+00 9.282299999999999995e-01 1.668700000000000072e+00 9.415419999999999234e+00 1.311020000000000074e+00 1.583930000000000060e+00 6.802109999999999879e+00 3.287850000000000161e+00 2.118050000000000210e+00 7.790530000000000399e+00 3.815859999999999808e+00 1.209240000000000093e+00 8.755999999999999894e-02 3.171339999999999826e+00 1.323839999999999906e+00 1.281150000000000055e+01 3.282300000000000217e+00 7.938600000000000101e-01 5.297180000000000000e+00
2.717729999999999979e+00 2.265199999999999991e-01 3.173740000000000006e+00 1.328559999999999963e+00 1.020799999999999930e+00 1.164520000000000088e+01 5.320899999999999519e-01 1.653240000000000043e+00 2.828819999999999890e+00 1.570580000000000087e+00 1.637369999999999992e+00 7.507259999999999600e+00 2.831400000000000028e-01 2.488379999999999814e+00 9.706889999999999574e+00 6.029200000000000115e-01 4.838600000000000123e-01 5.515920000000000378e+00 2.946829999999999838e+00 2.045139999999999958e+00 5.398390000000000022e+00 2.361219999999999875e+00 1.024049999999999905e+00 9.323930000000000717e+00 5.168800000000000061e-01 2.361900000000000110e-01 8.779200000000000337e-01 3.604449999999999932e+00 1.363459999999999894e+00 1.156099999999999994e+01 2.861229999999999940e+00 1.609240000000000004e+00 9.023799999999999599e-01 3.762939999999999952e+00 2.653680000000000039e+00 7.481320000000000192e+00
1.731370000000000076e+00 2.114749999999999908e+00 2.774189999999999934e+00 2.167180000000000106e+00 4.440500000000000003e-01 1.292270000000000074e+01 1.116499999999999992e-01 1.682239999999999958e+00 1.173170000000000002e+01 2.122799999999999798e+00 1.031150000000000011e+00 7.924109999999999765e+00 2.117469999999999963e+00 6.697300000000000475e-01 1.060950000000000060e+01 2.369000000000000217e+00 2.022219999999999906e+00 2.276429999999999865e+01 3.878929999999999989e+00 8.112200000000000522e-01 3.967820000000000125e+00 2.346429999999999794e+00 2.114290000000000003e+00 5.559099999999999930e+00 2.482099999999999862e-01 5.047800000000000065e-01 6.433849999999999625e+00 3.070800000000000196e-01 1.951189999999999980e+00 9.442619999999999791e+00 3.724460000000000104e+00 5.784500000000000197e-01 1.897149999999999892e+00 4.693399999999999794e-01 5.939600000000000435e-01 2.257910000000000039e+01
8.373000000000000442e-01 5.510000000000000314e-02 1.152309999999999945e+01 1.947689999999999921e+00 2.330169999999999852e+00 2.987039999999999917e+00 9.263700000000000268e-01 2.006199999999999928e-01 1.882280000000000086e+01 2.853429999999999911e+00 1.200909999999999922e+00 1.028810000000000002e+01 3.388679999999999914e+00 1.476800000000000057e-01 6.349759999999999849e+00 2.999699999999999811e+00 1.541959999999999997e+00 1.259179999999999922e+01 3.832390000000000185e+00 7.641400000000000414e-01 4.041470000000000340e+00 4.049360000000000070e+00 1.872649999999999926e+00 1.560540000000000038e+00 3.842700000000000005e-01 1.745200000000000085e-01 8.649979999999999336e+00 2.782700000000000173e+00 1.811010000000000009e+00 1.870680000000000121e+01 1.453240000000000087e+00 1.138269999999999893e+00 5.592170000000000307e+00 2.503919999999999924e+00 1.217470000000000052e+00 8.127390000000000114e+00
3.423280000000000101e+00 1.669640000000000013e+00 9.265790000000000859e+00 3.766090000000000160e+00 1.131860000000000088e+00 1.261560000000000059e+01 4.433889999999999887e+00 -4.183299999999999796e-01 1.865800000000000125e+01 1.697200000000000042e+00 7.203899999999999748e-01 5.911000000000000282e-02 3.704619999999999802e+00 1.496879999999999988e+00 1.128849999999999909e+00 1.499770000000000048e+00 1.877099999999999880e-01 1.313320000000000043e+01 1.394379999999999953e+00 -1.236300000000000038e-01 1.064329999999999998e+01 1.173119999999999941e+00 3.145899999999999808e-01 8.633929999999999438e+00 9.688799999999999635e-01 1.160469999999999891e+00 5.667270000000000252e+00 3.459189999999999987e+00 -6.146999999999999686e-02 6.385480000000000267e+00 1.635850000000000026e+00 2.113680000000000003e+00 2.648159999999999847e+00 3.944650000000000212e+00 -7.530000000000000582e-02 3.955340000000000078e+00
8.670900000000000274e-01 1.670979999999999910e+00 5.091910000000000380e+00 2.240429999999999922e+00 1.402630000000000043e+00 2.875030000000000197e+00 1.526399999999999979e+00 4.106899999999999995e-01 9.495400000000000063e+00 3.252000000000000030e-02 2.288609999999999811e+00 1.056869999999999976e+00 2.547289999999999832e+00 1.258690000000000087e+00 5.252900000000000347e-01 3.724940000000000140e+00 3.623700000000000254e-01 1.106329999999999991e+01 2.804959999999999898e+00 1.827100000000000113e-01 5.251689999999999969e+00 3.713900000000000201e+00 1.919710000000000027e+00 9.223869999999999791e+00 1.032600000000000046e-01 2.698280000000000012e+00 7.574510000000000076e+00 4.301379999999999981e+00 1.137699999999999961e-01 3.379430000000000156e+00 1.411909999999999998e+00 1.661650000000000071e+00 1.159670000000000023e+01 2.302970000000000184e+00 1.654670000000000085e+00 7.182030000000000136e+00
2.275929999999999787e+00 4.768000000000000016e-01 1.339200000000000113e-01 2.128909999999999858e+00 2.317899999999999849e+00 9.873549999999999827e+00 1.756199999999999983e-01 5.758600000000000385e-01 1.517120000000000024e+00 1.900239999999999929e+00 2.439099999999999879e-01 7.431040000000000312e+00 3.969570000000000043e+00 1.161429999999999962e+00 8.716580000000000439e+00 2.234879999999999978e+00 1.942490000000000050e+00 2.703539999999999832e+00 4.062920000000000087e+00 7.663999999999999702e-01 3.608499999999999819e+00 1.879990000000000050e+00 1.063299999999999912e+00 5.140200000000000102e+00 2.235780000000000101e+00 2.452319999999999833e+00 1.254420000000000002e+01 3.746499999999999830e-01 2.379030000000000200e+00 1.842259999999999920e+01 3.980669999999999931e+00 2.324139999999999873e+00 6.335440000000000182e+00 1.649400000000000033e-01 1.105010000000000048e+00 1.147700000000000031e+01
1.999160000000000048e+00 2.167050000000000143e+00 7.656950000000000145e+00 2.254269999999999996e+00 1.550700000000000134e-01 2.265029999999999877e+00 2.192800000000000027e-01 1.478150000000000075e+00 1.238680000000000003e+00 3.743290000000000006e+00 2.393330000000000179e+00 1.365010000000000012e+01 1.753069999999999906e+00 1.241239999999999899e+00 1.012340000000000018e+01 3.843280000000000030e+00 1.872300000000000075e-01 9.066750000000000753e+00 3.901040000000000063e+00 1.458560000000000079e+00 6.366789999999999949e+00 3.621179999999999843e+00 1.403799999999999937e+00 1.158419999999999916e+01 2.140109999999999957e+00 1.180860000000000021e+00 1.458799999999999919e+01 2.236899999999999888e+00 1.165040000000000076e+00 4.728369999999999962e+00 1.708999999999999964e-01 1.322299999999999864e-01 3.664330000000000087e+00 1.963090000000000002e+00 1.960000000000000075e-01 1.257789999999999964e+01
3.206529999999999880e+00 2.156519999999999992e+00 7.548790000000000333e+00 2.116439999999999877e+00 1.837120000000000086e+00 9.334720000000000795e+00 3.150020000000000042e+00 2.284539999999999793e+00 2.983239999999999892e+00 3.339300000000000157e+00 8.504399999999999737e-01 5.507950000000000124e+00 3.038990000000000080e+00 1.108000000000000096e+00 1.122970000000000024e+00 9.103299999999999725e-01 9.602300000000000280e-01 2.879070000000000018e+00 7.897699999999999720e-01 2.570000000000000062e-02 4.645599999999999730e-01 1.273160000000000069e+00 5.796099999999999586e-01 1.115150000000000041e+01 4.234549999999999592e+00 8.314300000000000024e-01 9.306940000000000879e+00 1.013109999999999955e+00 7.399099999999999566e-01 7.050239999999999618e+00 3.443989999999999885e+00 2.134040000000000159e+00 1.138749999999999929e+01 1.340030000000000054e+00 2.268959999999999866e+00 4.922480000000000189e+00
