8.525019999999999820e-01 -4.930930000000000035e-01 -6.072849999999999637e-01 -9.008119999999999461e-01 2.276473999999999887e+00 4.092255999999999894e+00 4.178379999999999872e-01 -1.028300000000000047e-02 -1.029503999999999975e+00 4.785139999999999949e-01 5.848529999999999562e-01 -2.861679999999999779e-01 6.015890000000000404e-01 6.905799999999999439e-02 4.941329999999999889e-01 1.307355999999999963e+00 -2.095012000000000096e+00 -3.978848999999999858e+00 -1.045849999999999974e-01 -2.210100000000000120e-01 -1.979799999999999963e-02 -1.125534999999999952e+00 -3.636369999999999880e-01 -5.937339999999999840e-01 8.667479999999999629e-01 5.004030000000000422e-01 4.882179999999999853e-01 -3.635939999999999728e-01 -3.623279999999999834e-01 -8.019400000000000139e-02 -1.032508999999999899e+00 6.538910000000000000e-01 6.008029999999999760e-01 -9.975129999999999830e-01 -5.393170000000000464e-01 9.201219999999999954e-01
-2.239480000000000082e-01 6.161699999999999955e-01 -3.504630000000000245e-01 1.806505000000000027e+00 -7.262239999999999807e-01 1.947000000000000119e-01 1.459419999999999884e-01 -5.117260000000000142e-01 1.487937999999999983e+00 -1.262323000000000084e+00 5.733420000000000183e-01 -2.585916999999999799e+00 -6.286200000000000121e-02 -2.256930000000000047e-01 -5.599200000000000010e-02 1.308016000000000068e+00 6.108489999999999753e-01 -1.223330999999999946e+00 -1.205807000000000073e+00 -1.179926999999999948e+00 -5.930039999999999756e-01 1.700077999999999978e+00 -6.813059999999999672e-01 2.871878000000000153e+00 8.765530000000000266e-01 4.571120000000000183e-01 -9.843480000000000008e-01 -1.989616999999999969e+00 6.864179999999999726e-01 1.539560000000000095e-01 -8.863370000000000415e-01 -2.013709999999999944e-01 3.737360000000000126e-01 -2.062009999999999954e-01 5.823570000000000135e-01 7.108470000000000066e-01
-6.231250000000000400e-01 -5.248519999999999852e-01 4.581799999999999762e-01 1.214049999999999990e-01 -1.155719999999999942e-01 7.625700000000000534e-02 -3.812349999999999905e-01 1.575000000000000011e-02 1.126935999999999938e+00 4.464969999999999772e-01 3.677999999999999846e-03 2.232790000000000052e-01 9.011519999999999531e-01 4.600599999999999828e-02 -6.939600000000000213e-01 1.030718000000000023e+00 -9.190460000000000296e-01 -3.081249999999999822e-01 5.155610000000000470e-01 5.897620000000000084e-01 2.697592000000000212e+00 -8.853990000000000471e-01 -5.824040000000000328e-01 -9.979899999999999882e-02 2.140730000000000133e-01 3.001010000000000066e-01 5.756999999999999895e-01 -8.016140000000000487e-01 1.696390000000000120e-01 -1.456067000000000000e+00 7.508879999999999999e-01 4.266030000000000100e-01 -2.811243999999999854e+00 -1.288918999999999926e+00 5.903350000000000541e-01 2.112499999999999933e-01
4.471100000000000074e-02 2.290780000000000038e-01 -1.339220000000000133e-01 -4.505460000000000020e-01 -1.683089999999999864e-01 2.790899999999999978e-02 -4.582072000000000145e+00 2.182663999999999938e+00 6.906120000000000037e-01 1.352710000000000024e-01 -4.680399999999999838e-02 1.206131000000000064e+00 1.457813999999999943e+00 -1.140786999999999995e+00 -8.230030000000000401e-01 -1.072449999999999931e-01 -9.113200000000000467e-02 1.226970000000000005e-01 2.264800000000000146e-02 3.383550000000000169e-01 -7.332969999999999766e-01 7.550099999999999867e-02 -2.717749999999999888e-01 3.187389999999999946e-01 6.678619999999999557e-01 -5.889529999999999488e-01 6.299719999999999764e-01 4.375771000000000299e+00 -2.068802999999999948e+00 -3.178469999999999906e-01 -1.855390000000000095e-01 7.008870000000000378e-01 -1.167229999999999934e-01 -1.454177000000000053e+00 9.255790000000000406e-01 -8.712680000000000424e-01
-2.365520000000000123e-01 -2.640589999999999882e-01 -1.481799999999999957e-02 -9.047089999999999854e-01 7.397299999999999986e-01 -5.924190000000000289e-01 -1.414500000000000091e+00 -5.784110000000000085e-01 -1.811220000000000052e-01 1.057552000000000048e+00 3.708230000000000137e-01 8.927840000000000220e-01 3.648060000000000191e-01 1.217120000000000007e-01 5.675700000000000189e-01 9.573760000000000048e-01 -6.629650000000000265e-01 -1.544810000000000072e-01 1.092579999999999940e-01 -7.188440000000000385e-01 3.275689999999999991e+00 5.234500000000000264e-02 8.941059999999999564e-01 -3.623759000000000174e+00 2.317562999999999818e+00 5.107500000000000234e-02 -3.181939999999999769e-01 -2.003334000000000170e+00 -2.774799999999999836e-02 1.228792000000000106e+00 6.403290000000000370e-01 -1.609659999999999980e-01 -6.396070000000000366e-01 -9.401350000000000540e-01 2.355490000000000084e-01 -4.404370000000000229e-01
-7.652930000000000010e-01 -8.767099999999999893e-01 1.183111999999999941e+00 -4.657450000000000201e-01 2.323900000000000132e-01 3.857860000000000178e-01 3.112920000000000131e-01 1.995460000000000012e-01 -6.448800000000000365e-02 1.837752000000000052e+00 6.380989999999999718e-01 2.236730000000000107e-01 -1.716042000000000067e+00 -9.484679999999999778e-01 -4.342469999999999941e-01 -4.468150000000000177e-01 7.126839999999999842e-01 2.079108000000000178e+00 1.097664999999999891e+00 5.280150000000000121e-01 -4.225039999999999907e-01 -1.919999999999999929e+00 -3.160340999999999845e+00 2.651733999999999813e+00 1.962990999999999930e+00 2.570098999999999911e+00 -5.141854999999999620e+00 1.330409999999999926e-01 6.127580000000000249e-01 -1.080702000000000051e+00 4.179260000000000197e-01 2.082199999999999884e-01 -1.939460000000000073e-01 -4.467720000000000025e-01 -7.162939999999999863e-01 8.143299999999999983e-01
-1.220839999999999925e+00 6.237420000000000186e-01 1.076140000000000013e-01 -4.220720000000000027e-01 1.870199999999999987e-02 7.226209999999999578e-01 5.649319999999999897e-01 9.084399999999999420e-02 -1.678298999999999985e+00 2.699759999999999938e-01 9.052100000000000424e-02 8.827549999999999564e-01 3.354019999999999779e-01 7.664200000000000179e-02 3.183799999999999825e-02 -9.942959999999999576e-01 9.167599999999999361e-02 -3.304529999999999967e-01 3.600079999999999947e-01 3.412999999999999801e-03 3.326451000000000047e+00 5.296349999999999669e-01 2.856409999999999783e-01 -1.568569999999999964e-01 -8.168799999999999673e-02 -1.430120000000000002e-01 -6.448279999999999568e-01 8.780609999999999804e-01 -8.528250000000000552e-01 -9.849919999999999787e-01 -2.541089999999999738e-01 -4.330620000000000025e-01 -9.712110000000000465e-01 3.499100000000000127e-02 1.477189999999999892e-01 -3.046380000000000199e-01
-8.675709999999999811e-01 1.414749999999999897e-01 -2.976190000000000224e-01 -5.593010000000000481e-01 4.938200000000000228e-02 1.028500000000000074e-02 9.183999999999999456e-03 -1.478589999999999904e-01 3.214770000000000127e-01 5.419997000000000398e+00 5.791400000000000020e-02 1.425086000000000075e+00 -6.486400000000000499e-02 8.276799999999999435e-02 -2.051779999999999993e-01 1.897069999999999868e-01 6.619400000000000284e-02 -2.463299999999999865e-02 8.984100000000000419e-01 -1.838539999999999897e-01 1.460690000000000044e-01 2.525891999999999804e+00 -2.626660000000000106e-01 -2.259907000000000110e+00 -2.572789000000000215e+00 3.501110000000000055e-01 2.997259000000000118e+00 -8.978840000000000154e-01 9.407200000000000284e-02 4.022099999999999981e-02 6.288799999999999946e-01 -1.708929999999999894e-01 4.384790000000000076e-01 -4.709661999999999793e+00 -7.664400000000000379e-02 -2.591540000000000177e+00
8.222770000000000357e-01 1.584770000000000068e-01 -2.267612000000000183e+00 -1.375483999999999929e+00 7.648699999999999943e-02 9.453129999999999589e-01 -3.017469999999999875e-01 2.767290000000000028e-01 2.554065000000000030e+00 4.099570000000000158e-01 3.223289999999999766e-01 -1.127188999999999997e+00 -5.443860000000000365e-01 -5.314300000000000274e-02 -2.078857999999999873e+00 3.547190000000000065e-01 2.436170000000000002e-01 -8.119389999999999663e-01 4.262299999999999978e-01 -4.416019999999999945e-01 4.537880000000000247e-01 5.120100000000000345e-02 4.547039999999999971e-01 1.832039999999999891e+00 -4.283800000000000108e-02 -3.984480000000000244e-01 -4.112600000000000283e-02 4.540350000000000219e-01 4.924609999999999821e-01 4.139169999999999794e-01 2.114419999999999911e-01 -5.623580000000000245e-01 2.708550000000000124e-01 -4.654050000000000131e-01 -5.692530000000000090e-01 -1.432529999999999915e-01
