4.255329999999999946e-01 1.962969999999999993e-01 -9.599750000000000227e-01 -3.772099999999999759e-02 -6.112659999999999760e-01 -7.540729999999999933e-01 4.528010000000000090e-01 -4.105219999999999980e-01 3.911839999999999762e-01 -5.399190000000000378e-01 4.273199999999999915e-02 1.014877999999999947e+00 -2.537389999999999923e-01 3.761860000000000204e-01 2.081179999999999974e-01 -6.612240000000000339e-01 2.862720000000000264e-01 -1.252310000000000090e-01 -5.260660000000000336e-01 -5.351500000000000146e-01 6.124840000000000284e-01 9.242289999999999672e-01 3.520840000000000081e-01 5.122919999999999696e-01 4.167339999999999933e-01 -7.703200000000000325e-02 -7.426049999999999596e-01 -3.467939999999999912e-01 -7.352360000000000007e-01 2.062380000000000047e-01 -4.410859999999999781e-01 -1.198300000000000060e-02 2.359400000000000108e-01 7.470139999999999558e-01 3.696670000000000234e-01 7.421419999999999684e-01 -2.309160000000000101e-01 6.931990000000000096e-01 5.539990000000000192e-01 4.666489999999999805e-01 9.554700000000000693e-02 -1.013154000000000110e+00 -1.206809999999999966e-01 -1.133959999999999968e-01 -4.885200000000000098e-01 -2.748149999999999760e-01 8.260099999999999387e-02 -3.937169999999999837e-01
2.373999999999999808e-03 4.076999999999999895e-03 1.507700000000000012e-02 5.420599999999999724e-02 -2.638300000000000020e-02 -1.658250000000000002e-01 -3.375800000000000328e-02 1.231259999999999993e-01 -1.686800000000000105e-02 -2.794119999999999937e-01 5.814699999999999730e-02 -9.990750000000000464e-01 -1.339049999999999963e-01 9.700000000000000289e-03 9.445989999999999664e-01 -1.991680000000000117e-01 -1.069060000000000010e-01 -1.036278999999999950e+00 3.054169999999999940e-01 -4.107000000000000407e-03 1.024400999999999895e+00 -9.796599999999999753e-02 -2.331040000000000056e-01 1.073228000000000071e+00 1.141889999999999988e-01 1.842200000000000087e-02 1.057237999999999900e+00 3.995200000000000140e-02 3.006899999999999851e-02 8.755999999999999894e-02 9.063799999999999635e-02 1.365700000000000074e-02 3.874099999999999766e-02 -2.126799999999999871e-02 -6.954299999999999371e-02 2.415700000000000139e-02 -9.545399999999999718e-02 7.510600000000000609e-02 5.160399999999999709e-02 1.378030000000000088e-01 2.532650000000000179e-01 -1.003614999999999924e+00 -3.301000000000000115e-03 -1.043339999999999962e-01 -5.601899999999999935e-02 1.196509999999999935e-01 -4.119199999999999945e-02 -1.038920999999999983e+00
9.736380000000000035e-01 -2.574469999999999814e-01 2.292599999999999846e-02 8.163150000000000128e-01 -9.520000000000000467e-04 -1.981700000000000128e-02 -4.805260000000000087e-01 -3.150419999999999887e-01 4.087859999999999827e-01 -2.328629999999999867e-01 3.572279999999999900e-01 -1.037282000000000037e+00 -8.731560000000000432e-01 -4.203310000000000102e-01 1.459599000000000091e+00 -4.687669999999999892e-01 5.504799999999999971e-02 -5.068369999999999820e-01 3.529800000000000160e-01 -2.509919999999999929e-01 7.378930000000000211e-01 -5.115150000000000530e-01 2.341979999999999895e-01 6.051619999999999777e-01 9.345210000000000461e-01 2.609400000000000053e-01 8.324989999999999890e-01 8.219400000000000039e-01 -3.966599999999999987e-02 4.217989999999999795e-01 -5.735679999999999668e-01 5.489319999999999755e-01 -4.142589999999999884e-01 -4.482309999999999905e-01 -5.922309999999999519e-01 2.126629999999999909e-01 5.427699999999999886e-02 7.659780000000000477e-01 -3.460650000000000115e-01 -4.822800000000000004e-02 -1.993429999999999924e-01 -1.225363999999999898e+00 -4.998900000000000010e-01 -4.273120000000000251e-01 -3.086050000000000182e-01 1.830739999999999867e-01 2.809929999999999928e-01 -8.430980000000000141e-01
-4.650329999999999742e-01 -4.209999999999999875e-04 6.155840000000000201e-01 2.059110000000000107e-01 2.088980000000000004e-01 -8.760719999999999619e-01 -7.193739999999999579e-01 1.740379999999999983e-01 -7.462929999999999842e-01 6.058580000000000076e-01 -5.183780000000000054e-01 -1.116090000000000027e+00 -2.573509999999999964e-01 -2.682129999999999792e-01 7.147000000000000020e-01 -1.604210000000000080e-01 2.632399999999999740e-01 7.451539999999999830e-01 5.872119999999999562e-01 -4.086690000000000045e-01 2.212619999999999865e-01 -1.968519999999999992e-01 6.281399999999999484e-02 1.342859999999999887e-01 1.333449999999999913e-01 1.993709999999999927e-01 1.108620000000000022e-01 -3.849639999999999729e-01 -1.583430000000000115e-01 -8.699510000000000298e-01 -3.133549999999999947e-01 3.110490000000000199e-01 3.852209999999999801e-01 2.987650000000000028e-01 2.910190000000000277e-01 5.593380000000000019e-01 3.789600000000000191e-01 -7.154420000000000224e-01 1.922280000000000100e-01 1.877260000000000040e-01 -1.066499999999999913e-02 1.258170000000000122e-01 1.106830000000000036e-01 2.254199999999999954e-02 2.247290000000000121e-01 -1.111099999999999935e-02 5.471610000000000085e-01 -4.207759999999999834e-01
-1.558999999999999969e-02 -4.860400000000000137e-02 3.712300000000000322e-02 5.545499999999999735e-02 1.797800000000000092e-02 -7.647800000000000431e-02 3.179719999999999769e-01 4.136499999999999899e-02 9.950339999999999741e-01 -1.427670000000000050e-01 -1.528410000000000046e-01 1.037525999999999948e+00 1.543399999999999980e-02 -1.990000000000000102e-02 -9.312829999999999719e-01 4.539699999999999985e-02 2.769500000000000087e-02 -9.076349999999999696e-01 1.834799999999999973e-02 4.644899999999999723e-02 8.220739999999999714e-01 1.854999999999999982e-01 9.415800000000000558e-02 6.377800000000000136e-02 -3.409460000000000268e-01 4.682000000000000398e-03 -9.943570000000000464e-01 3.344000000000000184e-03 1.798999999999999905e-02 -1.308299999999999914e-02 -8.907700000000000340e-02 -3.347399999999999681e-02 7.042800000000000449e-02 -8.071799999999999808e-02 -5.655500000000000110e-02 8.799700000000000299e-01 -9.278000000000000136e-02 -3.368299999999999766e-02 8.690399999999999514e-02 1.697639999999999982e-01 8.493900000000000061e-02 -1.004780999999999924e+00 1.071129999999999999e-01 3.087099999999999914e-02 -5.700800000000000312e-02 -1.564500000000000057e-01 -2.106999999999999845e-02 -8.214000000000000815e-03
-1.202256999999999909e+00 -5.480939999999999701e-01 -7.126099999999999657e-01 8.208200000000000218e-02 2.559960000000000013e-01 -6.252170000000000227e-01 -5.235720000000000374e-01 5.272710000000000452e-01 5.062360000000000193e-01 6.287779999999999481e-01 5.801939999999999875e-01 -5.944390000000000507e-01 -5.798899999999999888e-02 3.634149999999999880e-01 3.654600000000000209e-02 -6.802300000000000013e-02 -5.429610000000000269e-01 -6.118479999999999475e-01 -2.942500000000000115e-01 -9.056020000000000181e-01 1.351406000000000107e+00 9.411929999999999463e-01 7.179759999999999476e-01 -1.225220000000000059e-01 6.447950000000000070e-01 8.633699999999999708e-02 1.233436999999999895e+00 9.665230000000000210e-01 -3.317660000000000053e-01 1.040473999999999899e+00 -7.704020000000000312e-01 -6.995280000000000387e-01 8.935729999999999507e-01 -9.060230000000000228e-01 6.191940000000000222e-01 -6.715609999999999635e-01 2.899340000000000250e-01 3.100019999999999998e-01 8.481910000000000283e-01 9.880600000000000493e-02 9.928150000000000031e-01 -4.649349999999999872e-01 9.769459999999999811e-01 -1.156587999999999949e+00 -7.348860000000000392e-01 -8.065400000000000347e-01 -2.686620000000000119e-01 -1.371844000000000063e+00
1.321600000000000032e-02 -3.042900000000000119e-02 -2.145980000000000110e-01 1.830140000000000100e-01 7.143700000000000050e-02 -1.177715000000000067e+00 3.079499999999999946e-02 -6.364400000000000612e-02 -9.464699999999999502e-02 -3.563299999999999801e-02 -3.008500000000000063e-02 8.835600000000000398e-02 1.088220000000000021e-01 -1.248060000000000003e-01 1.211286000000000085e+00 -1.562469999999999970e-01 1.127630000000000021e-01 8.333549999999999569e-01 1.250610000000000055e-01 -7.836500000000000410e-02 -9.089679999999999982e-01 4.987400000000000166e-02 6.641700000000000381e-02 7.846200000000000396e-02 -5.564899999999999708e-02 1.784699999999999828e-02 -1.187399999999999983e-01 1.620139999999999914e-01 1.561300000000000014e-02 9.513599999999999834e-02 -4.256299999999999667e-02 1.403000000000000080e-02 6.821399999999999686e-02 -1.964359999999999995e-01 -9.110500000000000542e-02 1.207313999999999998e+00 2.063699999999999979e-01 -7.689500000000000501e-02 9.277779999999999916e-01 -1.605530000000000013e-01 3.881799999999999834e-02 -8.994069999999999565e-01 -1.326489999999999891e-01 2.338099999999999901e-02 8.112500000000000266e-02 -9.943799999999999861e-02 1.350210000000000021e-01 -1.176949000000000023e+00
8.231399999999999828e-02 3.161800000000000027e-02 -9.002100000000000379e-02 6.031000000000000250e-02 -2.403500000000000081e-02 1.066389000000000031e+00 1.066699999999999940e-02 6.054000000000000353e-03 1.004126999999999992e+00 -1.289799999999999974e-02 4.029400000000000343e-02 -6.815200000000000424e-02 -2.144389999999999907e-01 -2.427500000000000144e-02 -9.057690000000000463e-01 -1.237749999999999961e-01 -3.713700000000000334e-02 -1.593370000000000064e-01 2.362029999999999963e-01 3.245399999999999674e-02 9.235860000000000181e-01 1.107930000000000026e-01 4.737800000000000344e-02 1.677400000000000072e-02 8.718800000000000161e-02 1.475699999999999928e-02 -9.724460000000000326e-01 -8.870500000000000607e-02 3.160500000000000115e-02 1.012248999999999954e+00 -1.329499999999999953e-02 1.230000000000000017e-02 -1.066405000000000047e+00 -1.030000000000000013e-02 -4.257699999999999679e-02 -7.767999999999999731e-03 7.355200000000000626e-02 -2.827400000000000052e-02 1.552409999999999901e-01 -1.389170000000000127e-01 -6.002299999999999996e-02 8.279899999999999760e-02 -5.886500000000000066e-02 -1.814899999999999847e-02 -1.016726000000000019e+00 1.669999999999999935e-04 1.800900000000000070e-02 2.546100000000000099e-02
8.231399999999999828e-02 3.161800000000000027e-02 -9.002100000000000379e-02 6.031000000000000250e-02 -2.403500000000000081e-02 1.066389000000000031e+00 1.066699999999999940e-02 6.054000000000000353e-03 1.004126999999999992e+00 -1.289799999999999974e-02 4.029400000000000343e-02 -6.815200000000000424e-02 -2.144389999999999907e-01 -2.427500000000000144e-02 -9.057690000000000463e-01 -1.237749999999999961e-01 -3.713700000000000334e-02 -1.593370000000000064e-01 2.362029999999999963e-01 3.245399999999999674e-02 9.235860000000000181e-01 1.107930000000000026e-01 4.737800000000000344e-02 1.677400000000000072e-02 8.718800000000000161e-02 1.475699999999999928e-02 -9.724460000000000326e-01 -8.870500000000000607e-02 3.160500000000000115e-02 1.012248999999999954e+00 -1.329499999999999953e-02 1.230000000000000017e-02 -1.066405000000000047e+00 -1.030000000000000013e-02 -4.257699999999999679e-02 -7.767999999999999731e-03 7.355200000000000626e-02 -2.827400000000000052e-02 1.552409999999999901e-01 -1.389170000000000127e-01 -6.002299999999999996e-02 8.279899999999999760e-02 -5.886500000000000066e-02 -1.814899999999999847e-02 -1.016726000000000019e+00 1.669999999999999935e-04 1.800900000000000070e-02 2.546100000000000099e-02
2.188999999999999974e-02 5.248829999999999885e-01 -1.456350999999999951e+00 -7.886659999999999782e-01 -7.649709999999999566e-01 -6.067409999999999748e-01 3.909279999999999977e-01 4.730469999999999953e-01 1.131629999999999914e+00 -4.730889999999999818e-01 1.289589999999999903e-01 5.651000000000000467e-01 -4.514059999999999739e-01 8.531600000000000295e-02 -2.460700000000000109e-01 -3.546329999999999760e-01 -1.816599999999999882e-01 -1.079687000000000063e+00 -8.943800000000000361e-02 -3.343059999999999921e-01 1.139234999999999998e+00 1.084049999999999958e+00 2.955889999999999906e-01 9.010939999999999506e-01 1.504109999999999892e-01 -1.069770000000000026e-01 -4.089729999999999754e-01 2.491000000000000159e-03 3.819649999999999990e-01 -2.557710000000000261e-01 4.248399999999999954e-01 2.265300000000000091e-01 -3.876439999999999886e-01 5.885499999999999760e-02 -1.106332000000000093e+00 3.941700000000000065e-02 -3.299699999999999855e-01 -9.472200000000000064e-02 8.345939999999999470e-01 5.398490000000000233e-01 4.408320000000000016e-01 4.111830000000000207e-01 2.077459999999999862e-01 -1.837959999999999872e-01 -2.783109999999999751e-01 -3.938599999999999879e-01 2.156420000000000003e-01 -3.027050000000000018e-01
-1.558999999999999969e-02 -4.860400000000000137e-02 3.712300000000000322e-02 5.545499999999999735e-02 1.797800000000000092e-02 -7.647800000000000431e-02 3.179719999999999769e-01 4.136499999999999899e-02 9.950339999999999741e-01 -1.427670000000000050e-01 -1.528410000000000046e-01 1.037525999999999948e+00 1.543399999999999980e-02 -1.990000000000000102e-02 -9.312829999999999719e-01 4.539699999999999985e-02 2.769500000000000087e-02 -9.076349999999999696e-01 1.834799999999999973e-02 4.644899999999999723e-02 8.220739999999999714e-01 1.854999999999999982e-01 9.415800000000000558e-02 6.377800000000000136e-02 -3.409460000000000268e-01 4.682000000000000398e-03 -9.943570000000000464e-01 3.344000000000000184e-03 1.798999999999999905e-02 -1.308299999999999914e-02 -8.907700000000000340e-02 -3.347399999999999681e-02 7.042800000000000449e-02 -8.071799999999999808e-02 -5.655500000000000110e-02 8.799700000000000299e-01 -9.278000000000000136e-02 -3.368299999999999766e-02 8.690399999999999514e-02 1.697639999999999982e-01 8.493900000000000061e-02 -1.004780999999999924e+00 1.071129999999999999e-01 3.087099999999999914e-02 -5.700800000000000312e-02 -1.564500000000000057e-01 -2.106999999999999845e-02 -8.214000000000000815e-03
1.312299999999999925e-02 -1.684160000000000101e-01 -7.886729999999999574e-01 3.290440000000000031e-01 8.996659999999999657e-01 3.860270000000000090e-01 2.201200000000000101e-01 1.555620000000000058e-01 1.190055000000000085e+00 -3.154179999999999762e-01 -6.127070000000000016e-01 1.580948999999999938e+00 -8.244540000000000202e-01 -7.562599999999999878e-02 -1.084881999999999902e+00 -6.224849999999999550e-01 -3.127010000000000067e-01 -9.673070000000000279e-01 -7.964959999999999818e-01 6.298249999999999682e-01 3.740950000000000109e-01 8.743790000000000173e-01 3.626170000000000226e-01 1.981300000000000075e-02 4.397299999999999820e-02 -5.379999999999999583e-04 -1.005692000000000030e+00 -8.928129999999999677e-01 -6.699249999999999927e-01 1.061709000000000014e+00 1.668860000000000066e-01 3.590700000000000142e-02 3.196359999999999757e-01 5.566860000000000142e-01 -4.371149999999999758e-01 1.494590000000000085e-01 -1.186259999999999953e-01 5.993300000000000016e-02 3.449399999999999689e-02 4.249359999999999804e-01 2.021509999999999974e-01 -1.362525999999999904e+00 5.457189999999999541e-01 5.842140000000000111e-01 -8.919620000000000326e-01 3.954269999999999730e-01 -6.528469999999999551e-01 9.848059999999999592e-01
-5.161930000000000129e-01 -7.765260000000000495e-01 -3.370830000000000215e-01 -5.936050000000000493e-01 6.912150000000000238e-01 1.504972999999999894e+00 1.020230000000000026e-01 1.451900000000000066e-02 -9.455299999999999816e-02 5.629870000000000152e-01 5.192280000000000229e-01 9.118119999999999559e-01 -4.967389999999999861e-01 -4.603760000000000074e-01 -1.658600000000000074e-01 -8.880559999999999565e-01 7.954449999999999577e-01 2.969189999999999885e-01 -2.890099999999999961e-02 -2.911099999999999799e-01 5.960349999999999815e-01 4.638990000000000058e-01 -4.694019999999999859e-01 -3.149609999999999910e-01 1.086751000000000023e+00 -6.367519999999999847e-01 -1.355698000000000070e+00 -5.144290000000000251e-01 3.217990000000000017e-01 1.110535999999999968e+00 6.946729999999999849e-01 5.058669999999999556e-01 -8.599660000000000082e-01 -4.171599999999999753e-01 -3.886959999999999860e-01 2.717269999999999963e-01 -5.929700000000000248e-02 5.775909999999999656e-01 -3.090229999999999921e-01 1.094681000000000015e+00 -7.849230000000000373e-01 -1.079490000000000033e-01 -5.306290000000000173e-01 8.552920000000000522e-01 -1.232798000000000060e+00 3.999500000000000277e-02 -4.731710000000000083e-01 8.589099999999999513e-02
-1.558999999999999969e-02 -4.860400000000000137e-02 3.712300000000000322e-02 5.545499999999999735e-02 1.797800000000000092e-02 -7.647800000000000431e-02 3.179719999999999769e-01 4.136499999999999899e-02 9.950339999999999741e-01 -1.427670000000000050e-01 -1.528410000000000046e-01 1.037525999999999948e+00 1.543399999999999980e-02 -1.990000000000000102e-02 -9.312829999999999719e-01 4.539699999999999985e-02 2.769500000000000087e-02 -9.076349999999999696e-01 1.834799999999999973e-02 4.644899999999999723e-02 8.220739999999999714e-01 1.854999999999999982e-01 9.415800000000000558e-02 6.377800000000000136e-02 -3.409460000000000268e-01 4.682000000000000398e-03 -9.943570000000000464e-01 3.344000000000000184e-03 1.798999999999999905e-02 -1.308299999999999914e-02 -8.907700000000000340e-02 -3.347399999999999681e-02 7.042800000000000449e-02 -8.071799999999999808e-02 -5.655500000000000110e-02 8.799700000000000299e-01 -9.278000000000000136e-02 -3.368299999999999766e-02 8.690399999999999514e-02 1.697639999999999982e-01 8.493900000000000061e-02 -1.004780999999999924e+00 1.071129999999999999e-01 3.087099999999999914e-02 -5.700800000000000312e-02 -1.564500000000000057e-01 -2.106999999999999845e-02 -8.214000000000000815e-03
-1.763149999999999995e-01 3.453760000000000163e-01 -3.148029999999999995e-01 -2.032789999999999875e-01 -2.816859999999999919e-01 -1.254669999999999952e-01 3.114290000000000114e-01 -8.727600000000000635e-02 1.021611999999999965e+00 3.316500000000000004e-02 3.605099999999999971e-02 1.062426000000000093e+00 -5.261099999999999804e-02 1.158819999999999989e-01 -6.627610000000000445e-01 -1.865299999999999944e-02 -2.064600000000000116e-02 -5.692420000000000258e-01 -1.115229999999999971e-01 -2.385440000000000060e-01 9.026990000000000292e-01 2.283499999999999974e-01 -1.650880000000000125e-01 -4.640500000000000180e-02 -3.356959999999999944e-01 -9.346599999999999353e-02 -1.037095000000000100e+00 7.982899999999999718e-02 -2.888370000000000104e-01 -2.011239999999999972e-01 -2.787359999999999838e-01 1.909329999999999916e-01 1.522660000000000124e-01 -2.918560000000000043e-01 2.359229999999999938e-01 6.061710000000000154e-01 7.092600000000000293e-02 1.203769999999999979e-01 2.021149999999999891e-01 3.182690000000000241e-01 1.278839999999999977e-01 -8.056149999999999700e-01 2.458029999999999937e-01 -1.509399999999999908e-01 4.354100000000000331e-02 1.808990000000000042e-01 1.540580000000000005e-01 -2.283169999999999922e-01
-3.134009999999999851e-01 1.607149999999999967e-01 -7.263129999999999864e-01 -4.492010000000000169e-01 -3.757630000000000137e-01 -3.911620000000000097e-01 -1.691280000000000006e-01 3.006590000000000096e-01 -9.124899999999999678e-02 3.960509999999999864e-01 9.277000000000000524e-02 -5.380540000000000322e-01 1.706930000000000114e-01 2.290689999999999948e-01 9.664909999999999890e-01 2.343179999999999985e-01 3.256589999999999763e-01 -9.562749999999999861e-01 -1.943699999999999872e-01 -5.531199999999999450e-01 -1.925209999999999977e-01 -2.586600000000000010e-01 2.972999999999999948e-03 -7.977399999999999769e-02 6.866099999999999981e-02 4.171230000000000215e-01 4.224089999999999789e-01 5.859299999999999925e-02 1.297200000000000020e-01 4.545489999999999808e-01 -2.069600000000000051e-01 -5.119599999999999845e-02 4.904370000000000118e-01 1.215740000000000015e-01 -4.118450000000000166e-01 5.241540000000000088e-01 9.346500000000000641e-02 -4.369700000000000251e-01 7.124040000000000372e-01 6.925399999999999612e-02 -1.515180000000000138e-01 -1.533380000000000021e-01 2.265590000000000104e-01 2.256970000000000087e-01 -3.038279999999999870e-01 1.525499999999999912e-01 9.602800000000000225e-02 -1.379299999999999971e-01
-1.670669999999999933e-01 4.454000000000000320e-02 -7.411700000000000232e-02 -9.282400000000000373e-02 1.179219999999999990e-01 7.656389999999999585e-01 3.672999999999999876e-02 1.314490000000000103e-01 8.510410000000000474e-01 2.715759999999999841e-01 2.347589999999999955e-01 1.636209999999999887e-01 -3.223619999999999819e-01 -8.815000000000000613e-02 -9.120190000000000241e-01 4.871000000000000330e-02 1.045220000000000038e-01 -3.046820000000000084e-01 -8.819000000000000450e-03 -7.916099999999999526e-02 7.765980000000000105e-01 -2.488789999999999891e-01 3.149899999999999922e-02 2.440610000000000002e-01 8.204200000000000381e-02 -1.502149999999999874e-01 -7.479959999999999942e-01 3.660880000000000245e-01 -1.577179999999999971e-01 7.747810000000000530e-01 -9.912400000000000377e-02 -3.593999999999999972e-03 -1.109628999999999976e+00 5.401600000000000151e-02 -1.115069999999999950e-01 -1.916339999999999988e-01 1.086740000000000067e-01 7.678599999999999315e-02 4.290789999999999882e-01 -2.021930000000000116e-01 -1.178590000000000054e-01 1.661910000000000054e-01 7.649699999999999556e-02 1.397980000000000056e-01 -7.978150000000000519e-01 9.693499999999999339e-02 -1.730710000000000026e-01 -3.311999999999999666e-02
2.373999999999999808e-03 4.076999999999999895e-03 1.507700000000000012e-02 5.420599999999999724e-02 -2.638300000000000020e-02 -1.658250000000000002e-01 -3.375800000000000328e-02 1.231259999999999993e-01 -1.686800000000000105e-02 -2.794119999999999937e-01 5.814699999999999730e-02 -9.990750000000000464e-01 -1.339049999999999963e-01 9.700000000000000289e-03 9.445989999999999664e-01 -1.991680000000000117e-01 -1.069060000000000010e-01 -1.036278999999999950e+00 3.054169999999999940e-01 -4.107000000000000407e-03 1.024400999999999895e+00 -9.796599999999999753e-02 -2.331040000000000056e-01 1.073228000000000071e+00 1.141889999999999988e-01 1.842200000000000087e-02 1.057237999999999900e+00 3.995200000000000140e-02 3.006899999999999851e-02 8.755999999999999894e-02 9.063799999999999635e-02 1.365700000000000074e-02 3.874099999999999766e-02 -2.126799999999999871e-02 -6.954299999999999371e-02 2.415700000000000139e-02 -9.545399999999999718e-02 7.510600000000000609e-02 5.160399999999999709e-02 1.378030000000000088e-01 2.532650000000000179e-01 -1.003614999999999924e+00 -3.301000000000000115e-03 -1.043339999999999962e-01 -5.601899999999999935e-02 1.196509999999999935e-01 -4.119199999999999945e-02 -1.038920999999999983e+00
-1.558999999999999969e-02 -4.860400000000000137e-02 3.712300000000000322e-02 5.545499999999999735e-02 1.797800000000000092e-02 -7.647800000000000431e-02 3.179719999999999769e-01 4.136499999999999899e-02 9.950339999999999741e-01 -1.427670000000000050e-01 -1.528410000000000046e-01 1.037525999999999948e+00 1.543399999999999980e-02 -1.990000000000000102e-02 -9.312829999999999719e-01 4.539699999999999985e-02 2.769500000000000087e-02 -9.076349999999999696e-01 1.834799999999999973e-02 4.644899999999999723e-02 8.220739999999999714e-01 1.854999999999999982e-01 9.415800000000000558e-02 6.377800000000000136e-02 -3.409460000000000268e-01 4.682000000000000398e-03 -9.943570000000000464e-01 3.344000000000000184e-03 1.798999999999999905e-02 -1.308299999999999914e-02 -8.907700000000000340e-02 -3.347399999999999681e-02 7.042800000000000449e-02 -8.071799999999999808e-02 -5.655500000000000110e-02 8.799700000000000299e-01 -9.278000000000000136e-02 -3.368299999999999766e-02 8.690399999999999514e-02 1.697639999999999982e-01 8.493900000000000061e-02 -1.004780999999999924e+00 1.071129999999999999e-01 3.087099999999999914e-02 -5.700800000000000312e-02 -1.564500000000000057e-01 -2.106999999999999845e-02 -8.214000000000000815e-03
-2.263099999999999834e-02 6.427499999999999880e-02 -1.004013999999999962e+00 -2.605160000000000253e-01 6.229999999999999644e-04 -9.230810000000000404e-01 -2.897699999999999929e-02 -7.160900000000000598e-02 -1.171129999999999949e-01 -1.827000000000000065e-03 1.562649999999999872e-01 -1.064160999999999913e+00 6.911699999999999788e-02 8.047100000000000086e-02 2.068200000000000038e-01 1.079719999999999985e-01 -1.097200000000000085e-02 -9.378239999999999910e-01 1.006600000000000029e-02 3.918399999999999661e-02 4.292100000000000082e-02 1.320299999999999946e-02 -8.429799999999999793e-02 -5.258800000000000280e-02 -7.724399999999999322e-02 -2.308100000000000082e-02 9.690900000000000070e-01 6.434600000000000042e-02 6.158999999999999891e-02 1.041954999999999965e+00 -5.407200000000000201e-02 -1.668789999999999996e-01 9.760480000000000267e-01 -3.327800000000000202e-02 -7.443199999999999816e-02 -1.041100000000000012e-02 2.518440000000000123e-01 -1.317300000000000068e-02 9.261700000000000488e-01 -6.954799999999999871e-02 -4.983900000000000136e-02 -2.158000000000000196e-03 2.975300000000000167e-02 1.159379999999999994e-01 2.062900000000000150e-02 1.791000000000000057e-03 -2.406200000000000006e-02 -7.228300000000000003e-02
1.321600000000000032e-02 -3.042900000000000119e-02 -2.145980000000000110e-01 1.830140000000000100e-01 7.143700000000000050e-02 -1.177715000000000067e+00 3.079499999999999946e-02 -6.364400000000000612e-02 -9.464699999999999502e-02 -3.563299999999999801e-02 -3.008500000000000063e-02 8.835600000000000398e-02 1.088220000000000021e-01 -1.248060000000000003e-01 1.211286000000000085e+00 -1.562469999999999970e-01 1.127630000000000021e-01 8.333549999999999569e-01 1.250610000000000055e-01 -7.836500000000000410e-02 -9.089679999999999982e-01 4.987400000000000166e-02 6.641700000000000381e-02 7.846200000000000396e-02 -5.564899999999999708e-02 1.784699999999999828e-02 -1.187399999999999983e-01 1.620139999999999914e-01 1.561300000000000014e-02 9.513599999999999834e-02 -4.256299999999999667e-02 1.403000000000000080e-02 6.821399999999999686e-02 -1.964359999999999995e-01 -9.110500000000000542e-02 1.207313999999999998e+00 2.063699999999999979e-01 -7.689500000000000501e-02 9.277779999999999916e-01 -1.605530000000000013e-01 3.881799999999999834e-02 -8.994069999999999565e-01 -1.326489999999999891e-01 2.338099999999999901e-02 8.112500000000000266e-02 -9.943799999999999861e-02 1.350210000000000021e-01 -1.176949000000000023e+00
1.061182999999999987e+00 -3.519399999999999751e-01 1.895110000000000128e-01 8.069359999999999866e-01 -2.030500000000000013e-02 -2.494840000000000113e-01 -3.205489999999999728e-01 -4.887429999999999830e-01 2.710190000000000099e-01 -1.616680000000000061e-01 4.304140000000000188e-01 -7.195120000000000404e-01 -7.063019999999999854e-01 -5.269650000000000167e-01 1.194499999999999895e+00 -8.488400000000000112e-02 2.207320000000000115e-01 -1.734499999999999931e-02 1.746510000000000007e-01 -2.354580000000000006e-01 3.913280000000000092e-01 -4.903120000000000256e-01 3.877950000000000008e-01 2.866330000000000267e-01 7.974069999999999769e-01 8.493499999999999661e-02 2.904229999999999867e-01 7.902029999999999887e-01 -8.159999999999999936e-04 1.758309999999999873e-01 -7.864619999999999944e-01 7.413999999999999480e-01 -3.130560000000000009e-01 -4.866730000000000222e-01 -6.081119999999999859e-01 4.625719999999999832e-01 2.605190000000000006e-01 8.186080000000000023e-01 -3.931899999999999978e-02 -3.392490000000000228e-01 -3.949219999999999953e-01 -1.139115000000000100e+00 -4.322469999999999923e-01 -4.068419999999999814e-01 -4.340780000000000194e-01 -8.255400000000000238e-02 3.502199999999999758e-01 -3.499079999999999968e-01
-1.458029999999999882e-01 5.819400000000000267e-02 -5.488370000000000193e-01 5.100000000000000366e-04 -5.768100000000000310e-02 -2.804499999999999771e-01 1.192020000000000024e-01 1.075599999999999994e-02 6.020189999999999708e-01 -5.185100000000000126e-02 7.308399999999999619e-02 5.874310000000000365e-01 -3.951099999999999751e-02 1.268340000000000023e-01 -3.308999999999999875e-03 -1.152439999999999992e-01 -6.703800000000000037e-02 -5.981700000000000211e-02 9.953900000000000248e-02 -5.541700000000000098e-02 3.474559999999999871e-01 9.960900000000000309e-02 -3.432400000000000034e-02 2.853939999999999810e-01 -1.086460000000000065e-01 -1.234200000000000054e-02 -7.227550000000000363e-01 3.123469999999999858e-01 3.614400000000000251e-02 2.734230000000000271e-01 -1.661040000000000016e-01 -6.392200000000000659e-02 2.786819999999999853e-01 -7.182499999999999996e-02 1.948000000000000079e-03 7.011799999999999977e-02 -2.516610000000000236e-01 -2.066590000000000094e-01 3.451139999999999763e-01 2.382180000000000131e-01 -1.082100000000000076e-02 -3.190149999999999930e-01 4.009299999999999670e-02 1.819870000000000099e-01 -3.176660000000000039e-01 4.112699999999999689e-02 1.925800000000000081e-02 -5.377889999999999615e-01
-1.558999999999999969e-02 -4.860400000000000137e-02 3.712300000000000322e-02 5.545499999999999735e-02 1.797800000000000092e-02 -7.647800000000000431e-02 3.179719999999999769e-01 4.136499999999999899e-02 9.950339999999999741e-01 -1.427670000000000050e-01 -1.528410000000000046e-01 1.037525999999999948e+00 1.543399999999999980e-02 -1.990000000000000102e-02 -9.312829999999999719e-01 4.539699999999999985e-02 2.769500000000000087e-02 -9.076349999999999696e-01 1.834799999999999973e-02 4.644899999999999723e-02 8.220739999999999714e-01 1.854999999999999982e-01 9.415800000000000558e-02 6.377800000000000136e-02 -3.409460000000000268e-01 4.682000000000000398e-03 -9.943570000000000464e-01 3.344000000000000184e-03 1.798999999999999905e-02 -1.308299999999999914e-02 -8.907700000000000340e-02 -3.347399999999999681e-02 7.042800000000000449e-02 -8.071799999999999808e-02 -5.655500000000000110e-02 8.799700000000000299e-01 -9.278000000000000136e-02 -3.368299999999999766e-02 8.690399999999999514e-02 1.697639999999999982e-01 8.493900000000000061e-02 -1.004780999999999924e+00 1.071129999999999999e-01 3.087099999999999914e-02 -5.700800000000000312e-02 -1.564500000000000057e-01 -2.106999999999999845e-02 -8.214000000000000815e-03