5.985219103000000374e+00 0.000000000000000000e+00 0.000000000000000000e+00 1.799768900000000005e-01 6.154391254000000089e+00 0.000000000000000000e+00 -8.779554600000000208e-02 2.075263299999999950e-02 5.816245870000000373e+00
5.801168220000000098e+00 0.000000000000000000e+00 0.000000000000000000e+00 -1.222013970000000033e-01 5.926575976999999718e+00 0.000000000000000000e+00 -1.228915039999999986e-01 1.282953669999999935e-01 5.770834244999999640e+00
5.878422458000000184e+00 0.000000000000000000e+00 0.000000000000000000e+00 -1.529628809999999950e-01 6.046366403000000389e+00 0.000000000000000000e+00 1.450358099999999976e-02 -1.102536890000000019e-01 5.996468478999999796e+00
5.648796003000000177e+00 0.000000000000000000e+00 0.000000000000000000e+00 -1.469877539999999982e-01 5.810179620999999628e+00 0.000000000000000000e+00 1.393703299999999971e-02 -1.059468939999999998e-01 5.762230839999999965e+00
6.063347659999999806e+00 0.000000000000000000e+00 0.000000000000000000e+00 1.353755389999999892e-01 5.946529864999999582e+00 0.000000000000000000e+00 1.570712720000000118e-01 -3.336547999999999944e-03 5.770537774000000120e+00
