4.094709999999999739e-01 9.366560000000000441e-01 4.712810000000000055e-01 -1.525598999999999927e+00 9.311110000000000220e-01 9.541640000000000121e-01 4.961160000000000014e-01 -2.077029999999999987e-01 1.535739999999999883e-01 3.290258000000000127e+00 2.477441999999999922e+00 -2.991214999999999957e+00 -3.555423999999999918e+00 -2.362897999999999943e+00 3.412000000000000033e-01 5.312879999999999825e-01 -5.832000000000000378e-03 6.146499999999999880e-02 -8.062070000000000070e-01 2.133046999999999915e+00 6.101919999999999566e-01 -1.043530000000000013e-01 -4.310390000000000055e-01 2.704989999999999895e-01 2.360406999999999922e+00 -5.695449999999999680e-01 -1.009938000000000002e+00 -5.368129999999999846e-01 6.949530000000000429e-01 -5.623650000000000038e-01 9.737540000000000084e-01 8.077800000000000258e-02 -9.824499999999999900e-02 -1.687699999999999964e-02 -1.078943999999999903e+00 1.643100000000000116e-01 -1.424714999999999954e+00 -9.001399999999999679e-02 -7.583099999999999563e-02 -9.577679999999999527e-01 -3.107349999999999834e-01 8.545930000000000470e-01 -5.554379999999999873e-01 -8.940460000000000074e-01 -4.658400000000000041e-02 1.421898000000000106e+00 -1.303233000000000086e+00 9.029009999999999536e-01
1.266680000000000028e-01 1.132500999999999980e+00 -1.553153999999999924e+00 -1.254229999999999956e+00 -2.640738999999999947e+00 -1.302020000000000122e-01 1.322926000000000046e+00 1.035582999999999920e+00 1.192871999999999932e+00 -8.581539999999999724e-01 2.620120000000000227e-01 6.018869999999999498e-01 -5.819609999999999506e-01 8.486890000000000267e-01 -7.407999999999999308e-02 1.207006000000000023e+00 -1.158454000000000095e+00 1.006859999999999977e-01 1.587040999999999924e+00 1.322908999999999891e+00 1.074381999999999948e+00 -5.673399999999999554e-01 -2.385117000000000154e+00 8.859000000000000208e-01 -1.326279999999999959e-01 1.650667000000000106e+00 3.987800000000000233e-01 3.052651000000000003e+00 -3.290967999999999893e+00 3.087593000000000032e+00 9.381639999999999979e-01 -6.050269999999999815e-01 -1.000099000000000071e+00 -2.670242000000000004e+00 2.972499000000000002e+00 -3.932190999999999992e+00 -6.526950000000000252e-01 7.156470000000000331e-01 6.075979999999999714e-01 7.369949999999999557e-01 -1.078939000000000092e+00 4.466970000000000107e-01 -5.202940000000000342e-01 9.112740000000000284e-01 2.143889999999999962e-01 -1.733907000000000087e+00 3.074640000000000151e-01 -1.921059000000000072e+00
-1.007662000000000058e+00 1.030971000000000082e+00 1.954291999999999918e+00 -4.148099999999999704e-02 4.020599999999999868e-02 4.522499999999999853e-01 -7.499430000000000263e-01 -3.225457000000000019e+00 1.268227999999999911e+00 1.725595999999999908e+00 2.134631999999999863e+00 2.961670000000000136e-01 -7.669970000000000399e-01 7.477479999999999682e-01 1.162801999999999891e+00 -7.983679999999999666e-01 6.679929999999999479e-01 7.944139999999999535e-01 2.017649999999999999e-01 4.359569999999999834e-01 -5.833599999999999897e-01 -4.027540000000000009e-01 -4.027490000000000236e-01 -2.363319999999999865e-01 1.889345999999999970e+00 -9.180089999999999639e-01 -3.839480000000000115e-01 -3.969159999999999910e-01 9.597799999999999387e-02 -1.565400000000000125e-01 -4.605029999999999957e-01 7.476770000000000360e-01 1.691560000000000008e-01 2.827596000000000220e+00 -3.287746999999999975e+00 -2.744937000000000182e+00 -1.147879000000000094e+00 3.150510000000000255e-01 -1.981420000000000126e-01 -6.856740000000000057e-01 1.827164000000000010e+00 2.984189999999999898e-01 -4.529179999999999873e-01 4.666980000000000017e-01 -1.417934999999999945e+00 2.667930000000000024e-01 -6.761129999999999640e-01 -6.745320000000000205e-01
-3.085699999999999901e-02 1.805759999999999865e-01 4.762379999999999947e-01 -1.165749999999999981e-01 1.143649999999999944e-01 -1.745539999999999869e-01 -1.613750000000000018e+00 -3.964869999999999783e-01 5.946559999999999624e-01 4.341749999999999776e-01 -1.808284000000000002e+00 -9.327889999999999793e-01 -1.269039999999999946e+00 8.763009999999999966e-01 6.413200000000000012e-01 -1.819118000000000013e+00 1.966744000000000048e+00 1.687645000000000062e+00 4.249769999999999937e-01 2.225989999999999913e-01 2.430070000000000008e-01 -1.041328000000000031e+00 -7.422140000000000404e-01 -1.164381000000000110e+00 -3.064879999999999827e-01 -5.894089999999999607e-01 -1.453453000000000106e+00 1.124241999999999964e+00 -8.105010000000000270e-01 -5.632580000000000364e-01 -3.251789999999999958e-01 8.616449999999999942e-01 4.031139999999999723e-01 3.368828999999999851e+00 -1.769960999999999895e+00 -8.773600000000000287e-01 1.779203000000000090e+00 -8.189939999999999998e-01 -1.324203999999999937e+00 2.856489999999999974e+00 5.346916000000000224e+00 -1.734107000000000065e+00 3.316390000000000171e-01 8.052150000000000141e-01 8.239020000000000232e-01 -3.797219000000000122e+00 -3.438511000000000095e+00 3.354223999999999872e+00
-1.182339999999999947e+00 -6.594740000000000046e-01 6.789539999999999464e-01 4.183839999999999781e-01 -2.438500000000000043e-02 5.407509999999999817e-01 -1.047033000000000103e+00 1.619818999999999898e+00 2.504629999999999912e-01 -1.177295999999999898e+00 -3.975429999999999797e-01 -2.030349999999999877e+00 -5.847710000000000408e-01 -1.211089000000000082e+00 -4.758180000000000187e-01 -1.133620000000000072e+00 1.868819999999999926e-01 -6.832380000000000120e-01 2.341539000000000037e+00 8.347499999999999365e-02 -3.456670000000000020e-01 -3.976379999999999915e-01 1.411769999999999969e+00 8.967100000000000071e-02 1.975985000000000102e+00 3.856618000000000102e+00 -2.948151000000000188e+00 5.780260000000000398e-01 -1.190501000000000031e+00 1.248763000000000067e+00 -8.434300000000000130e-02 3.843619999999999814e-01 -1.294060999999999906e+00 2.956800000000000053e-02 1.024632999999999905e+00 8.134059999999999624e-01 -2.528761999999999954e+00 -3.360605000000000064e+00 3.227866000000000124e+00 -3.595940000000000247e-01 1.790619999999999989e-01 -2.373929999999999929e-01 1.471097000000000099e+00 -2.078266000000000169e+00 1.157642000000000060e+00 1.680798000000000014e+00 1.752430000000000099e-01 7.164000000000000229e-03
