1.231439841783161704e+01 -2.575728660873271902e+00 7.045581647216120125e+00 -2.575728660873271902e+00 -1.293726726886918588e+00 -2.255691998626316586e-01 7.045581647216120125e+00 -2.255691998626316586e-01 5.613203626044475314e+00
1.970705106725172476e-02 -6.663303142237504417e+00 -1.173546372615540623e+00 -6.663303142237504417e+00 8.136507510397747112e+00 7.882462174780616948e+00 -1.173546372615540623e+00 7.882462174780616948e+00 3.023340592700577201e+00
6.987261762695234246e+00 4.943630328558277776e-01 -1.229781103258849040e+00 4.943630328558277776e-01 -1.037864701945875767e+00 4.247729957142268864e-01 -1.229781103258849040e+00 4.247729957142268864e-01 7.126469474006689175e+00
2.028500109128872797e+00 -1.235065671786305108e+00 3.103021322814109695e+00 -1.235065671786305108e+00 -2.103016976796534543e+00 2.593323030649136385e+00 3.103021322814109695e+00 2.593323030649136385e+00 1.467293235185996991e+01
-3.122641608802927848e+00 -4.325870461777149067e+00 -2.023838153810799956e-01 -4.325870461777149067e+00 -6.231061179813511819e-01 2.055836788934556569e+00 -2.023838153810799956e-01 2.055836788934556569e+00 -6.394458829346786111e+00
-3.666016213519277533e-01 1.191293248391734849e+01 3.529048507654000133e+00 1.191293248391734849e+01 -5.951694018819464027e+00 -1.344399681577540084e+00 3.529048507654000133e+00 -1.344399681577540084e+00 -1.467682696217866845e+00
2.216994159716969293e+01 -8.445528554694277545e+00 -5.062763400776744582e+00 -8.445528554694277545e+00 1.203269769168012004e+01 1.795036934998552658e+00 -5.062763400776744582e+00 1.795036934998552658e+00 1.846033911872259736e+01
1.508261159736979984e+01 -6.190588006066914062e+00 -2.826205710928540338e+00 -6.190588006066914062e+00 1.143043298907854144e+01 6.106981498383702522e+00 -2.826205710928540338e+00 6.106981498383702522e+00 -8.774914498099050109e-01
2.008149517611593993e+01 5.147172377710226066e+00 -1.212642754359618325e+00 5.147172377710226066e+00 1.106655120230646183e+01 -4.575114706346542270e+00 -1.212642754359618325e+00 -4.575114706346542270e+00 -1.615206385571265724e+00
6.175144066848591073e+00 8.991005758948120707e-01 -1.072263535233839216e+00 8.991005758948120707e-01 8.539573366160695400e+00 1.107120595879666070e+01 -1.072263535233839216e+00 1.107120595879666070e+01 1.824256029227119669e+01
6.054494785451765893e+00 3.194140110246527442e+00 7.253891213455287534e+00 3.194140110246527442e+00 2.176061722515522945e+01 1.488518676091042270e+00 7.253891213455287534e+00 1.488518676091042270e+00 1.718579229093704086e+01
-1.623600331154720777e+01 -6.543465276280774345e-01 -6.968073642407960344e-01 -6.543465276280774345e-01 -3.087025685540001785e+00 -9.284397187596336920e+00 -6.968073642407960344e-01 -9.284397187596336920e+00 1.934374791130829774e+00
8.338170555413061180e+00 -7.082703901792821277e+00 -3.389703548081223872e+00 -7.082703901792821277e+00 -3.456889046711196567e+00 -3.804569741916449255e-01 -3.389703548081223872e+00 -3.804569741916449255e-01 -1.246880231414825069e+01
1.278575624695096202e+01 -7.528959485194198775e-01 6.499061077906016504e-01 -7.528959485194198775e-01 2.313841683989796394e+01 -2.810545850954145219e+00 6.499061077906016504e-01 -2.810545850954145219e+00 1.741240394352235654e+01
1.081507700367511227e+01 -6.834445163598478423e+00 5.483210742963033901e+00 -6.834445163598478423e+00 1.637641528747885289e+01 8.351025521221030479e-01 5.483210742963033901e+00 8.351025521221030479e-01 1.139932576414828702e+01
1.970053678406266684e+01 9.294945454362412818e+00 7.378242006650727269e+00 9.294945454362412818e+00 1.781976865824539402e+01 2.343448974585646383e+00 7.378242006650727269e+00 2.343448974585646383e+00 7.920134939671320318e+00
