6.362400000000000277e-01 1.116419999999999968e+00 7.454419999999999824e+00 4.888760000000000439e+00 3.268299999999999983e+00 8.287750000000000838e+00 1.450930000000000053e+00 2.177499999999999991e-01 1.160389999999999944e+01 5.203400000000000247e+00 3.360430000000000028e+00 1.617699999999999971e-01 4.557979999999999698e+00 3.782550000000000079e+00 3.356240000000000112e+00 8.259100000000000330e-01 1.288210000000000077e+00 1.829150000000000054e+00 3.434089999999999865e+00 8.915699999999999736e-01 6.404040000000000177e+00 1.201549999999999896e+00 1.977090000000000014e+00 1.621839999999999904e+01 1.764850000000000030e+00 2.412100000000000133e+00 9.039199999999999235e+00 2.835999999999999854e+00 2.792799999999999727e-01 1.670990000000000109e+01 3.209379999999999900e+00 8.496799999999999908e-01 8.745340000000000558e+00 1.324449999999999905e+00 1.612570000000000059e+00 4.472360000000000113e+00 3.487190000000000012e+00 1.414619999999999989e+00 1.560720000000000107e+00 1.630659999999999998e+00 3.448490000000000055e+00 6.099230000000000373e+00 4.478939999999999699e+00 1.784059999999999979e+00 4.491460000000000008e+00 2.502409999999999801e+00 3.305250000000000021e+00 3.285719999999999974e+00
2.428290000000000060e+00 6.060100000000000486e-01 3.102700000000000014e+00 3.717270000000000074e+00 2.762100000000000222e+00 9.218100000000000183e-01 5.213000000000000272e-02 9.134999999999999787e-01 2.515849999999999920e+00 3.679359999999999964e+00 2.826119999999999965e+00 3.485980000000000079e+00 2.949129999999999807e+00 1.980509999999999993e+00 5.686810000000000365e+00 5.390439999999999898e+00 3.596109999999999918e+00 8.327230000000000132e+00 3.364380000000000148e+00 3.720940000000000136e+00 1.039220000000000077e+01 2.978000000000000091e-01 1.933000000000000052e+00 6.280800000000000161e+00 1.164740000000000109e+00 3.466200000000000170e+00 1.110249999999999959e+00 2.659599999999999742e-01 1.982420000000000071e+00 1.038669999999999938e+01 1.760820000000000052e+00 6.807000000000000550e-02 6.563109999999999999e+00 2.835310000000000219e+00 9.615700000000000358e-01 6.808000000000000163e-02 3.738490000000000091e+00 1.576589999999999936e+00 8.239990000000000592e+00 4.975660000000000416e+00 4.625500000000000167e-01 4.771169999999999689e+00 1.063139999999999974e+00 2.616709999999999869e+00 4.223379999999999690e+00 3.211499999999999910e-01 1.536010000000000097e+00 1.878610000000000113e+01
2.449440000000000062e+00 9.131099999999999772e-01 2.954299999999999926e+00 3.779830000000000023e+00 2.987929999999999975e+00 1.127930000000000099e+00 5.422250000000000014e+00 9.711499999999999577e-01 2.587429999999999897e+00 3.670780000000000154e+00 2.850610000000000088e+00 3.516070000000000029e+00 2.900030000000000108e+00 1.871390000000000109e+00 5.609300000000000175e+00 3.926999999999999935e-02 3.744169999999999998e+00 8.365170000000000883e+00 3.236769999999999925e+00 3.651850000000000041e+00 1.027970000000000006e+01 1.160800000000000026e-01 2.142119999999999802e+00 6.385919999999999597e+00 1.051730000000000054e+00 3.311609999999999943e+00 9.425400000000000444e-01 2.249500000000000111e-01 1.931259999999999977e+00 1.052960000000000029e+01 1.865310000000000024e+00 3.776460000000000150e+00 6.683740000000000236e+00 2.913800000000000168e+00 8.175200000000000244e-01 1.641299999999999981e-01 3.878649999999999931e+00 1.785709999999999908e+00 8.207269999999999399e+00 5.156729999999999592e+00 2.384100000000000108e-01 4.688209999999999766e+00 9.947200000000000486e-01 2.613249999999999851e+00 4.110199999999999854e+00 3.037500000000000200e-01 1.277479999999999949e+00 1.871069999999999922e+01
5.047690000000000232e+00 1.420220000000000038e+00 5.254199999999999982e-01 1.585599999999999898e+00 1.293539999999999912e+00 8.484949999999999548e+00 4.721849999999999881e+00 1.615199999999999969e-01 4.599029999999999951e+00 5.054630000000000400e+00 2.627099999999999991e+00 1.127820000000000000e+01 5.928099999999999481e-01 1.828060000000000018e+00 2.816500000000000004e+00 3.911729999999999929e+00 9.622300000000000297e-01 8.261359999999999815e+00 1.384460000000000024e+00 3.449199999999999822e+00 6.057099999999999707e-01 2.032610000000000028e+00 7.973799999999999777e-01 1.674470000000000169e+01 6.926099999999999479e-01 1.979940000000000033e+00 5.446970000000000312e+00 1.998590000000000089e+00 3.684779999999999944e+00 4.535730000000000040e+00 4.071930000000000049e+00 3.246230000000000171e+00 1.692340000000000089e+01 4.650059999999999860e+00 3.537220000000000031e+00 1.840719999999999912e+00 3.571899999999999853e+00 2.889050000000000118e+00 6.968060000000000365e+00 9.473000000000000309e-01 3.380700000000000038e+00 7.312710000000000043e+00 2.765690000000000204e+00 1.480229999999999935e+00 1.354000000000000092e+00 3.988129999999999953e+00 8.302300000000000235e-01 1.033460000000000001e+01
2.208889999999999798e+00 1.809870000000000090e+00 6.525830000000000020e+00 4.638620000000000410e+00 1.849110000000000031e+00 1.613599999999999923e+01 5.212999999999999856e-01 3.351809999999999956e+00 8.461240000000000094e+00 3.587410000000000210e+00 3.196509999999999962e+00 5.747480000000000366e+00 2.568540000000000045e+00 2.272940000000000182e+00 1.776829999999999998e+01 4.879699999999999704e+00 1.502010000000000067e+00 6.888490000000000002e+00 3.049399999999999888e+00 2.525760000000000005e+00 8.554280000000000328e+00 4.098100000000000076e-01 1.438979999999999926e+00 2.043520000000000003e+00 3.725899999999999768e-01 3.289089999999999847e+00 3.870659999999999989e+00 9.439400000000000013e-01 1.565620000000000012e+00 9.656140000000000612e+00 3.719269999999999854e+00 1.235090000000000021e+00 9.656779999999999475e+00 3.134759999999999991e+00 2.524649999999999839e+00 9.108899999999999775e-01 8.283000000000000085e-02 3.513459999999999805e+00 7.548799999999999955e-01 2.176260000000000083e+00 3.541090000000000071e+00 1.058840000000000003e+01 9.006600000000000161e-01 1.166840000000000099e+00 1.815810000000000102e+01 2.658920000000000172e+00 1.782829999999999915e+00 3.709979999999999833e+00
2.268299999999999983e+00 3.330159999999999787e+00 1.384159999999999968e+01 2.748330000000000162e+00 9.637299999999999756e-01 1.637209999999999965e+01 1.480280000000000040e+00 1.670549999999999979e+00 7.922010000000000218e+00 3.536439999999999806e+00 3.271819999999999951e+00 9.582800000000000207e-01 4.114900000000000224e-01 3.566209999999999880e+00 6.513080000000000425e+00 4.349680000000000213e+00 1.695270000000000055e+00 2.331729999999999858e+00 1.738289999999999891e+00 2.044919999999999849e+00 4.881269999999999776e+00 4.341459999999999653e+00 2.018549999999999844e+00 5.217220000000000191e+00 2.108729999999999993e+00 2.900589999999999780e+00 1.032820000000000071e+01 2.836409999999999876e+00 8.641000000000000070e-02 6.558329999999999771e+00 4.069799999999999862e+00 1.481249999999999956e+00 1.205030000000000001e+01 7.083800000000000097e-01 2.741969999999999796e+00 1.654690000000000083e+01 1.833790000000000031e+00 1.683270000000000044e+00 2.226560000000000095e+00 3.641999999999999904e+00 1.402579999999999938e+00 8.683889999999999887e+00 9.143900000000000361e-01 3.478520000000000056e+00 3.137379999999999836e+00 3.167040000000000077e+00 3.498549999999999827e+00 3.813480000000000203e+00
3.621789999999999843e+00 2.744899999999999896e+00 6.337790000000000035e+00 2.301800000000000068e+00 1.115869999999999918e+00 1.491230000000000055e+00 1.898660000000000014e+00 8.362600000000000033e-01 4.777490000000000236e+00 4.652569999999999872e+00 1.091630000000000100e+00 1.855930000000000035e+01 3.792060000000000208e+00 2.857120000000000104e+00 2.042349999999999888e+00 2.573490000000000055e+00 6.844299999999999828e-01 8.037330000000000751e+00 6.160900000000000265e-01 2.490540000000000198e+00 6.985170000000000101e+00 5.243369999999999642e+00 2.816870000000000207e+00 4.690820000000000434e+00 3.306080000000000130e+00 2.231479999999999908e+00 1.927570000000000050e+01 1.866540000000000088e+00 2.439830000000000165e+00 9.473229999999999151e+00 4.659200000000000008e-01 1.001509999999999900e+00 1.017409999999999926e+01 2.672699999999999854e+00 2.773359999999999825e+00 4.210160000000000124e+00 4.498199999999999976e-01 2.749880000000000102e+00 3.160000000000000309e-02 4.528749999999999609e+00 2.901860000000000106e+00 9.255760000000000431e+00 4.341859999999999609e+00 9.620999999999999552e-01 5.463099999999999845e+00 2.817600000000000104e-01 7.256799999999999917e-01 3.070739999999999803e+00
3.588989999999999903e+00 2.157760000000000122e+00 1.816410000000000080e+00 4.749800000000000133e-01 2.843710000000000182e+00 7.298210000000000086e+00 4.119679999999999787e+00 9.337800000000000544e-01 6.977990000000000137e+00 4.325540000000000163e+00 4.627399999999999847e-01 3.411449999999999871e+00 2.093500000000000139e+00 3.419459999999999944e+00 1.037889999999999979e+01 2.485020000000000007e+00 3.860590000000000188e+00 5.529659999999999798e+00 1.258930000000000105e+00 2.171800000000000175e+00 1.707799999999999940e+01 2.040010000000000101e+00 1.349620000000000042e+00 3.479490000000000194e+00 5.010130000000000194e+00 3.702949999999999964e+00 9.317500000000000782e+00 3.282300000000000217e-01 1.008089999999999931e+00 1.252110000000000056e+00 2.594889999999999919e+00 5.984699999999999465e-01 1.781979000000000113e+01 1.112689999999999957e+00 3.761779999999999902e+00 1.591419999999999924e+01 1.126789999999999958e+00 1.478460000000000107e+00 9.395820000000000505e+00 3.645239999999999814e+00 1.595350000000000046e+00 9.843189999999999884e+00 2.897400000000000198e+00 2.706259999999999888e+00 7.944849999999999746e+00 9.020599999999999730e-01 2.833180000000000032e+00 2.119380000000000042e+00
4.814739999999999576e+00 2.244369999999999976e+00 7.291009999999999991e+00 2.753750000000000142e+00 1.110399999999999998e-01 3.823789999999999800e+00 1.616419999999999968e+00 4.964299999999999824e-01 8.370319999999999538e+00 7.770700000000000385e-01 2.333899999999999864e-01 3.020389999999999908e+00 7.379700000000000149e-01 7.235999999999999377e-02 5.883530000000000371e+00 2.818160000000000220e+00 3.787409999999999943e+00 1.299869999999999948e+01 4.877299999999999969e-01 4.469299999999999939e-01 1.255129999999999946e+01 1.345669999999999922e+00 2.108439999999999870e+00 4.358270000000000088e+00 6.793700000000000294e-01 4.010699999999999821e-01 1.070720000000000027e+01 4.194619999999999571e+00 3.381799999999999806e-01 8.986060000000000159e+00 4.135259999999999714e+00 3.090700000000000114e-01 1.466439999999999966e+00 2.669049999999999923e+00 2.167479999999999851e+00 1.026239999999999952e+01 4.544539999999999580e+00 2.239279999999999937e+00 3.763360000000000039e+00 2.188379999999999992e+00 1.713600000000000012e+00 1.403200000000000003e+00 3.792999999999999844e-02 1.979570000000000052e+00 5.485400000000000276e-01 3.486349999999999838e+00 3.672300000000000009e-01 6.441180000000000128e+00
1.185759999999999925e+00 2.952040000000000219e+00 6.147359999999999935e+00 7.697399999999999798e-01 3.646549999999999958e+00 2.626899999999999791e-01 3.918369999999999909e+00 3.321499999999999897e+00 5.653190000000000381e+00 1.969279999999999919e+00 1.679859999999999909e+00 3.477999999999999842e-02 2.102609999999999868e+00 1.272310000000000052e+00 7.397929999999999673e+00 1.770909999999999984e+00 8.979099999999999859e-01 4.600950000000000095e+00 2.257480000000000153e+00 3.082739999999999814e+00 1.014809999999999945e+01 4.687030000000000030e+00 1.774270000000000014e+00 7.377279999999999838e+00 3.251650000000000151e+00 3.593010000000000037e+00 8.291119999999999379e+00 1.300850000000000062e+00 1.808130000000000015e+00 1.805730000000000146e+01 4.331050000000000288e+00 2.070619999999999905e+00 4.259899999999999798e-01 5.541700000000000514e-01 1.382479999999999931e+00 2.277330000000000076e+00 4.413829999999999920e+00 2.964640000000000164e+00 3.456789999999999807e+00 3.301340000000000163e+00 8.838300000000000045e-01 1.020429999999999993e+01 4.851539999999999964e+00 2.470089999999999897e+00 9.551890000000000214e+00 2.767149999999999999e+00 1.084019999999999984e+00 1.975289999999999990e+00
2.137600000000000056e-01 3.353720000000000034e+00 7.628000000000000058e-02 4.977759999999999962e+00 3.737999999999999656e-02 2.879220000000000113e+00 1.722550000000000026e+00 3.637319999999999887e+00 9.175430000000000419e+00 5.023279999999999745e+00 1.297919999999999963e+00 5.831470000000000375e+00 2.827620000000000022e+00 2.900770000000000071e+00 4.097899999999999876e-01 3.866319999999999979e+00 2.734729999999999883e+00 4.651139999999999830e+00 2.901199999999999779e+00 1.068219999999999947e+00 1.210009999999999941e+01 4.092719999999999914e+00 1.011530000000000040e+00 9.317669999999999675e+00 2.912560000000000038e+00 8.577099999999999724e-01 3.384619999999999962e+00 1.240199999999999969e+00 2.232149999999999856e+00 7.692680000000000184e+00 4.049520000000000231e+00 2.361829999999999874e+00 7.240879999999999761e+00 2.424859999999999793e+00 6.405399999999999983e-01 5.796149999999999913e+00 2.871379999999999821e+00 1.400309999999999944e+00 1.415970000000000084e+01 1.242499999999999938e+00 2.463529999999999998e+00 4.471420000000000172e+00 1.283639999999999892e+00 1.541970000000000063e+00 1.576120000000000054e+01 4.445800000000000196e+00 1.713580000000000103e+00 1.240520000000000067e+00
5.100749999999999673e+00 3.253099999999999881e+00 4.998529999999999696e+00 4.026970000000000383e+00 5.592000000000000304e-01 1.407469999999999999e+01 4.337900000000000311e+00 8.483399999999999830e-01 9.994350000000000733e+00 4.007390000000000008e+00 1.074240000000000084e+00 4.158760000000000012e+00 1.561539999999999928e+00 1.297069999999999945e+00 1.356799999999999962e+01 1.204059999999999908e+00 7.902799999999999825e-01 7.085890000000000022e+00 2.661280000000000090e+00 3.527789999999999981e+00 1.211330000000000062e+01 3.789320000000000022e+00 1.781959999999999988e+00 1.240850000000000009e+01 2.949780000000000069e+00 2.436890000000000001e+00 8.840999999999999304e+00 1.004739999999999966e+00 1.222439999999999971e+00 3.571000000000000174e+00 3.747160000000000046e+00 5.197500000000000453e-01 7.175679999999999836e+00 1.395610000000000017e+00 1.846540000000000070e+00 1.095880000000000010e+01 3.156070000000000153e+00 9.375900000000000345e-01 4.120599999999999818e-01 2.437660000000000160e+00 2.995530000000000026e+00 4.928799999999999848e+00 5.096800000000000219e-01 2.788250000000000117e+00 8.742259999999999920e+00 5.127670000000000172e+00 2.299200000000000133e-01 1.189569999999999972e+01
9.279100000000000126e-01 1.249560000000000004e+00 9.254860000000000753e+00 1.183459999999999956e+00 2.434000000000000163e+00 4.395220000000000127e+00 2.999220000000000219e+00 3.251999999999999891e-01 2.443830000000000169e+00 4.015469999999999651e+00 2.120620000000000172e+00 3.596569999999999823e+00 4.646560000000000024e+00 3.376479999999999926e+00 8.101589999999999847e+00 5.533500000000000085e-01 1.562429999999999986e+00 6.932640000000000136e+00 1.035400000000000098e+00 3.621659999999999879e+00 1.562900000000000122e-01 2.613630000000000120e+00 2.971300000000000052e-01 4.882909999999999862e+00 1.693429999999999991e+00 1.877830000000000110e+00 1.436560000000000059e+00 5.661800000000000166e-01 2.633900000000000130e-01 2.948650000000000215e+00 3.565640000000000143e+00 1.336910000000000043e+00 8.549929999999999808e+00 4.776500000000000412e+00 2.108649999999999913e+00 9.657900000000000373e-01 4.869049999999999656e+00 3.675679999999999836e+00 5.535610000000000142e+00 3.346530000000000005e+00 3.989099999999999868e-01 1.635650000000000048e+01 1.913129999999999997e+00 3.444329999999999892e+00 7.300290000000000390e+00 3.088309999999999889e+00 1.745479999999999920e+00 6.727129999999999832e+00
1.220350000000000046e+00 3.367659999999999876e+00 1.390149999999999997e+00 4.225000000000000283e-02 1.627180000000000071e+00 7.652140000000000164e+00 3.811459999999999848e+00 3.324160000000000004e+00 8.860440000000000538e+00 5.669300000000000450e-01 1.174960000000000004e+00 1.485159999999999947e+01 1.201370000000000049e+00 3.021780000000000133e+00 1.222930000000000028e+01 1.159909999999999997e+00 2.785109999999999975e+00 6.026290000000000369e+00 1.387690000000000090e+00 3.143050000000000122e+00 1.660279999999999845e+01 2.531870000000000065e+00 1.554599999999999982e+00 1.894980000000000109e+00 3.242249999999999854e+00 2.900580000000000158e+00 3.682500000000000107e+00 4.757100000000000328e+00 1.117210000000000036e+00 5.377620000000000289e+00 4.480859999999999843e+00 1.745409999999999906e+00 1.732829999999999870e+01 2.178370000000000140e+00 1.172940000000000094e+00 4.858850000000000335e+00 2.131079999999999863e+00 2.681459999999999955e+00 1.034609999999999985e+01 2.501650000000000151e+00 1.214080000000000048e+00 7.824169999999999625e+00 4.669260000000000410e+00 1.103169999999999984e+00 2.827109999999999790e+00 3.452920000000000211e+00 3.169690000000000119e+00 5.814799999999999969e-01
2.440370000000000150e+00 2.985059999999999825e+00 1.354390000000000072e+01 2.651930000000000121e+00 4.087999999999999967e-01 1.557690000000000019e+01 1.906169999999999920e+00 2.190780000000000172e+00 8.376889999999999503e+00 3.157469999999999999e+00 3.097230000000000150e+00 1.210429999999999895e+00 7.598700000000000454e-01 6.779399999999999871e-01 6.955000000000000071e+00 4.396740000000000315e+00 1.304550000000000098e+00 2.433609999999999829e+00 1.706010000000000026e+00 2.052210000000000090e+00 5.377559999999999896e+00 4.373380000000000045e+00 1.685969999999999969e+00 5.303810000000000358e+00 2.331599999999999895e+00 3.223129999999999828e+00 1.032850000000000001e+01 2.982190000000000119e+00 3.519499999999999851e-01 6.782040000000000290e+00 2.713610000000000078e+00 1.065409999999999968e+00 1.148310000000000031e+01 7.746699999999999697e-01 3.365730000000000111e+00 2.042299999999999949e-01 1.555010000000000003e+00 1.196700000000000097e+00 1.605390000000000095e+00 4.305259999999999643e+00 2.123580000000000023e+00 7.952259999999999884e+00 9.949099999999999611e-01 3.003219999999999779e+00 3.119169999999999998e+00 3.105599999999999916e+00 3.519000000000000128e+00 4.091759999999999842e+00
4.901679999999999815e+00 8.393599999999999950e-01 1.383440000000000047e+01 3.061910000000000132e+00 3.537749999999999950e+00 1.534769999999999968e+01 2.452040000000000219e+00 3.527849999999999930e+00 8.538940000000000197e+00 2.685100000000000264e-01 8.770999999999999630e-02 5.287959999999999994e+00 2.452300000000000146e+00 3.549150000000000027e+00 1.725829999999999975e+00 4.671269999999999811e+00 3.241999999999999993e+00 8.371750000000000469e+00 3.659790000000000099e+00 1.825180000000000025e+00 6.641689999999999650e+00 3.707089999999999996e+00 1.857439999999999980e+00 3.468440000000000190e+00 4.034749999999999837e+00 1.778929999999999900e+00 5.990299999999999514e-01 1.233100000000000085e+00 1.622910000000000075e+00 7.530990000000000073e+00 1.207000000000000073e+00 2.222160000000000135e+00 3.096350000000000158e+00 1.103110000000000035e+00 1.576319999999999943e+00 1.017379999999999995e+01 7.689999999999999787e-03 1.018300000000000038e-01 1.934129999999999905e+00 3.784349999999999881e+00 1.175740000000000007e+00 1.016029999999999944e+01 1.364579999999999904e+00 1.573129999999999917e+00 2.743999999999999773e-01 2.245649999999999924e+00 1.506599999999999884e-01 5.358780000000000321e+00
5.879799999999999471e-01 1.706040000000000001e+00 2.766000000000000125e-01 4.608629999999999782e+00 1.792489999999999917e+00 1.049000000000000021e+01 2.021999999999999839e-02 2.505770000000000053e+00 5.083380000000000010e+00 3.436100000000000154e+00 2.057599999999999985e-01 9.144470000000000098e+00 6.937100000000000488e-01 7.861599999999999699e-01 3.911340000000000039e+00 2.797060000000000102e+00 9.432999999999999718e-02 6.545849999999999724e+00 2.806810000000000027e+00 2.972710000000000186e+00 2.166519999999999779e+00 1.896050000000000013e+00 1.563530000000000086e+00 1.537720000000000020e+01 2.604859999999999953e+00 2.136150000000000215e+00 4.805069999999999730e+00 3.756299999999999972e+00 9.221599999999999797e-01 3.410930000000000017e+00 2.438790000000000013e+00 3.614399999999999835e+00 1.716519999999999868e+01 5.067389999999999617e+00 2.662189999999999834e+00 2.776699999999999946e+00 3.800839999999999996e+00 1.993389999999999995e+00 7.736110000000000042e+00 1.241740000000000066e+00 1.363900000000000112e-01 8.964850000000000207e+00 3.774799999999999933e+00 1.250050000000000106e+00 6.798499999999999543e-01 2.262500000000000178e+00 1.767390000000000017e+00 9.497949999999999449e+00
6.800500000000000433e-01 1.203200000000000047e+00 7.386549999999999727e+00 5.037289999999999601e+00 3.386890000000000178e+00 8.392110000000000625e+00 1.400830000000000020e+00 2.677599999999999980e-01 1.163640000000000008e+01 5.139590000000000103e+00 3.472939999999999916e+00 2.568300000000000027e-01 4.484750000000000014e+00 3.689569999999999794e+00 3.035079999999999778e+00 9.474000000000000199e-01 1.242690000000000072e+00 1.916169999999999929e+00 3.609999999999999876e+00 8.699500000000000011e-01 6.567350000000000243e+00 1.152970000000000050e+00 1.939980000000000038e+00 1.633099999999999952e+01 1.675319999999999920e+00 2.415459999999999940e+00 8.839389999999999858e+00 2.878760000000000208e+00 2.076000000000000068e-01 1.670250000000000057e+01 3.260860000000000092e+00 8.922299999999999676e-01 8.659309999999999619e+00 1.309970000000000079e+00 1.376349999999999962e+00 4.465160000000000018e+00 3.453650000000000109e+00 1.530219999999999914e+00 1.544650000000000079e+00 1.496099999999999985e+00 3.452529999999999877e+00 6.021340000000000359e+00 4.434239999999999959e+00 1.843509999999999982e+00 4.591120000000000090e+00 2.470950000000000202e+00 3.217519999999999936e+00 3.374550000000000161e+00
4.610669999999999824e+00 2.099209999999999798e+00 3.285610000000000142e+00 3.247360000000000024e+00 2.045310000000000183e+00 6.796280000000000321e+00 1.459149999999999947e+00 8.153000000000000247e-01 8.492889999999999162e+00 2.708410000000000206e+00 2.716759999999999842e+00 9.512610000000000454e+00 4.600399999999999601e+00 1.009099999999999997e-01 5.019300000000000317e+00 4.353799999999999670e+00 5.731100000000000083e-01 8.850709999999999411e+00 3.122269999999999879e+00 3.026130000000000209e+00 2.077830000000000066e+00 3.595499999999999807e-01 2.794939999999999980e+00 1.033370000000000033e+01 4.217600000000000238e-01 1.915480000000000071e+00 5.645880000000000010e+00 8.340999999999999803e-02 2.542730000000000157e+00 8.157809999999999562e+00 1.041130000000000111e+00 1.468960000000000043e+00 1.814659999999999940e+01 1.848300000000000054e+00 1.578189999999999982e+00 7.054300000000000015e-01 2.262360000000000149e+00 1.096540000000000070e+00 4.293239999999999945e+00 4.054960000000000342e+00 9.545700000000000296e-01 4.567999999999999838e-01 3.563100000000000156e-01 2.767710000000000115e+00 1.158560000000000034e+00 2.040099999999999802e+00 3.342400000000000038e+00 1.909880000000000067e+01
3.228969999999999896e+00 1.183449999999999891e+00 1.583029999999999937e+01 3.084649999999999892e+00 1.443030000000000035e+00 3.295970000000000066e+00 4.408669999999999867e+00 2.808019999999999960e+00 1.066009999999999991e+01 9.024799999999999489e-01 2.485860000000000181e+00 5.488970000000000127e+00 7.937699999999999756e-01 2.508259999999999934e+00 1.588320000000000043e+01 8.734899999999999887e-01 7.009999999999999565e-01 3.451109999999999900e+00 1.945189999999999975e+00 2.268650000000000055e+00 1.228439999999999976e+01 2.568589999999999929e+00 3.452999999999999958e-01 1.045730000000000004e+01 4.451889999999999681e+00 3.505430000000000046e+00 1.140390000000000015e+00 1.816599999999999993e+00 1.657480000000000064e+00 7.649000000000000021e+00 4.130499999999999727e-01 3.648859999999999992e+00 8.511260000000000048e+00 4.391160000000000174e+00 2.248130000000000184e+00 6.881409999999999805e+00 2.210539999999999949e+00 8.378100000000000547e-01 1.342290000000000028e+01 3.039509999999999934e+00 3.633000000000000118e-02 5.966639999999999944e+00 4.773489999999999789e+00 4.088999999999999857e-01 1.421889999999999965e+01 2.072220000000000173e+00 3.166690000000000005e+00 1.531970000000000054e+00
9.295200000000000129e-01 2.882899999999999796e+00 7.376599999999999824e-01 8.606999999999999373e-02 1.360430000000000028e+00 7.794710000000000250e+00 4.479879999999999640e+00 3.231910000000000061e+00 9.339729999999999421e+00 4.208660000000000068e+00 4.928600000000000203e-01 1.466489999999999938e+01 8.079000000000000070e-02 3.329800000000000093e+00 1.292549999999999955e+01 1.279930000000000012e+00 2.887690000000000090e+00 6.394239999999999924e+00 3.024490000000000123e+00 5.719400000000000039e-01 1.643169999999999931e+01 2.638860000000000205e+00 1.123860000000000081e+00 2.040589999999999904e+00 2.901489999999999903e+00 2.935099999999999820e+00 3.531489999999999796e+00 4.423910000000000231e+00 4.567499999999999893e-01 5.308049999999999713e+00 2.506399999999999739e-01 1.083860000000000046e+00 1.688350000000000151e+01 1.996879999999999988e+00 1.235239999999999894e+00 5.109429999999999694e+00 1.604579999999999895e+00 3.412479999999999958e+00 9.461209999999999454e+00 2.473479999999999901e+00 1.679750000000000076e+00 8.147949999999999804e+00 7.148999999999999799e-01 2.227899999999999991e+00 3.057539999999999925e+00 3.324660000000000171e+00 2.680579999999999963e+00 5.056199999999999584e-01
3.720060000000000144e+00 1.233800000000000008e+00 1.173579999999999934e+01 3.719139999999999890e+00 2.788499999999999979e+00 5.478299999999999947e+00 4.504859999999999864e+00 2.353320000000000078e+00 1.304759999999999920e+00 4.667950000000000266e+00 2.758059999999999956e+00 8.224849999999999994e+00 5.326970000000000205e+00 1.073029999999999928e+00 6.586109999999999687e+00 3.427869999999999973e+00 3.032550000000000079e+00 1.020790000000000042e+01 1.434309999999999974e+00 9.616700000000000248e-01 4.597749999999999559e+00 4.123179999999999623e+00 9.961100000000000509e-01 3.391480000000000050e+00 5.225480000000000125e+00 7.696600000000000108e-01 9.537890000000000867e+00 1.879769999999999941e+00 1.373680000000000012e+00 8.948570000000000135e+00 2.969590000000000174e+00 1.101410000000000000e+00 6.787539999999999907e+00 3.021659999999999791e+00 1.155510000000000037e+00 1.373269999999999946e+01 5.084999999999999520e-01 3.234599999999999920e+00 3.727580000000000116e+00 2.401219999999999910e+00 3.609090000000000131e+00 1.763290000000000024e+00 1.092049999999999965e+00 3.079260000000000108e+00 6.261660000000000004e+00 8.388200000000000101e-01 1.488150000000000084e+00 2.433289999999999953e+00
4.029699999999999949e-01 3.447060000000000013e+00 2.881699999999999817e-01 6.006000000000000227e-02 5.351000000000000201e-01 3.031789999999999985e+00 1.693519999999999914e+00 3.644709999999999894e+00 9.429840000000000444e+00 2.377999999999999906e-02 2.451500000000000068e-01 5.669100000000000250e+00 3.229109999999999925e+00 1.661400000000000099e-01 8.118400000000000061e-01 3.722210000000000019e+00 2.394480000000000164e+00 4.524589999999999890e+00 2.617809999999999970e+00 3.583399999999999919e-01 1.129260000000000019e+01 3.860059999999999825e+00 8.650299999999999656e-01 9.214600000000000790e+00 2.232730000000000103e+00 7.859000000000000430e-01 3.499280000000000168e+00 1.991689999999999960e+00 1.443429999999999991e+00 7.875860000000000305e+00 3.563600000000000101e+00 3.179809999999999803e+00 7.217200000000000060e+00 2.442489999999999828e+00 5.869799999999999462e-01 5.731700000000000017e+00 2.881829999999999892e+00 2.129729999999999901e+00 1.387729999999999997e+01 1.209130000000000038e+00 2.457650000000000112e+00 4.462399999999999700e+00 1.533150000000000013e+00 1.524610000000000021e+00 1.589189999999999969e+01 4.388740000000000308e+00 1.832840000000000025e+00 1.370149999999999979e+00
2.173700000000000188e+00 1.746639999999999970e+00 1.951600000000000001e-01 4.947820000000000107e+00 2.902429999999999843e+00 1.069020000000000081e+01 7.917499999999999538e-01 3.422039999999999971e+00 5.580350000000000144e+00 1.020010000000000083e+00 2.927210000000000090e+00 8.259080000000000865e+00 2.107580000000000009e+00 1.602999999999999980e+00 3.814459999999999962e+00 1.964269999999999960e+00 1.406870000000000065e+00 6.589550000000000018e+00 3.517180000000000195e+00 3.289880000000000138e+00 2.989590000000000192e+00 8.037100000000000355e-01 1.021399999999999947e-01 1.647409999999999997e+01 4.581100000000000172e+00 1.694709999999999939e+00 6.723799999999999777e+00 4.926339999999999719e+00 1.631089999999999929e+00 3.916889999999999983e+00 3.245830000000000215e+00 3.674770000000000092e+00 1.665309999999999846e+01 5.262099999999999556e-01 3.007190000000000030e+00 2.364529999999999799e+00 3.007480000000000153e+00 2.099000000000000171e-02 8.133399999999999963e+00 3.675549999999999873e+00 3.563740000000000130e+00 5.266060000000000407e+00 4.919629999999999725e+00 1.689980000000000038e+00 5.707400000000000251e-01 4.809459999999999624e+00 8.849200000000000399e-01 9.811019999999999186e+00
7.681799999999999740e-01 1.196720000000000006e+00 4.400199999999999889e+00 2.565059999999999896e+00 4.678300000000000236e-01 9.940609999999999502e+00 3.450559999999999850e+00 1.602610000000000090e+00 2.206420000000000048e+00 3.057900000000000063e-01 3.415420000000000122e+00 1.725860000000000127e+01 4.906189999999999607e+00 1.794640000000000013e+00 2.816899999999999959e-01 2.029110000000000191e+00 1.777330000000000076e+00 3.506999999999999701e-02 5.004859999999999864e+00 9.032999999999999363e-02 7.950709999999999944e+00 2.195069999999999855e+00 3.572029999999999816e+00 3.249680000000000124e+00 1.778500000000000081e-01 2.825549999999999784e+00 2.358699999999999797e+00 3.396609999999999907e+00 1.057400000000000007e-01 2.155199999999999894e-01 4.045149999999999579e+00 2.044329999999999981e+00 6.780479999999999841e+00 4.283210000000000406e+00 3.631590000000000096e+00 5.086269999999999847e+00 1.583660000000000068e+00 2.599600000000000133e+00 9.020730000000000359e+00 1.380609999999999893e+00 2.862740000000000062e+00 6.172270000000000145e+00 4.177200000000000024e+00 2.073189999999999866e+00 9.841310000000000002e+00 2.344160000000000021e+00 3.636599999999999833e-01 7.425060000000000215e+00