-4.548323371000000037e+01
-4.828413743000000125e+01
-4.802230583000000053e+01
-4.492457876000000283e+01
-4.321111106000000035e+01
-4.770469694999999888e+01
-4.611313047000000154e+01
-4.612456775999999792e+01
-4.779888753000000179e+01
-4.402747663000000244e+01
-4.585157917000000083e+01
-4.717056733999999807e+01
-5.004445426000000197e+01
-4.660664347000000163e+01
-4.738714359000000087e+01
-4.943210461000000322e+01
-4.541160823999999963e+01
-4.571328261000000026e+01
-4.640756517999999886e+01
-4.493832155999999856e+01
-4.643131332000000100e+01
-4.800157317000000035e+01
-4.632792814999999820e+01
-4.844194293999999701e+01
-4.721326567999999924e+01
-4.711141966999999653e+01
-4.710881811000000141e+01
-4.481657824999999917e+01
-4.570923617999999777e+01
-4.698451687000000021e+01
-4.639336438000000129e+01
-4.769792835999999880e+01
-4.955531950999999680e+01
-4.863528543000000326e+01
-4.697630861999999752e+01
-4.450627619000000124e+01
-4.862220125999999709e+01
-4.771051216000000039e+01
-4.659251133000000067e+01
-4.799305109000000158e+01
-4.607738455999999871e+01
-4.605729151999999971e+01
-4.681148538000000059e+01
-5.014653304000000134e+01
-4.540867382999999791e+01
-4.645059466000000015e+01
-4.679872221000000110e+01
-4.851111998999999741e+01
-4.593309484000000253e+01
-4.547419246999999842e+01
-4.621981096999999750e+01
