-1.011228419499999944e+02
-1.003189252800000020e+02
-1.043655543499999965e+02
-9.923631631000000652e+01
-1.012896923600000036e+02
-9.765164206000000036e+01
-1.033684371800000008e+02
-1.034942445800000002e+02
-9.982032589000000655e+01
-1.022538596299999938e+02
-1.049231812900000023e+02
-1.004947164000000015e+02
-9.764538305000000662e+01
