8.147079999999999878e-01 5.717309999999999892e-01 3.681289999999999840e-01 -1.023447999999999913e+00 -1.169265999999999917e+00 -5.602179999999999938e-01 1.133056000000000063e+00 -5.178939999999999655e-01 7.530000000000000235e-03 -4.992900000000000116e-02 -4.085829999999999740e-01 7.338489999999999736e-01 5.190299999999999775e-02 -1.515109000000000039e+00 3.122949999999999893e-01 3.207090000000000218e-01 -1.033680000000000015e-01 1.479068000000000049e+00 1.609637999999999902e+00 -4.832989999999999786e-01 -4.004369999999999874e-01 2.081170000000000186e+00 -1.658064999999999900e+00 -1.801550999999999902e+00 -5.281010000000000426e-01 -4.233499999999999763e-02 -3.065760000000000152e-01 7.233460000000000445e-01 9.141029999999999989e-01 8.669379999999999864e-01 -1.100965999999999889e+00 1.638590000000000046e-01 3.522799999999999820e-01 -2.882668999999999926e+00 2.394283999999999857e+00 7.323489999999999611e+00 -1.689726000000000061e+00 1.236520000000000064e+00 -2.176750999999999880e+00 6.978189999999999671e-01 4.235729999999999773e-01 1.065318999999999905e+00 -1.487109000000000014e+00 1.604970000000000008e-01 3.220810000000000062e-01 -1.306750999999999996e+00 -4.469629999999999992e-01 -1.182838999999999974e+00 5.495499999999999691e-02 3.709189999999999987e-01 -5.074229999999999574e-01 4.700819999999999999e-01 4.320649999999999769e-01 -3.849090000000000011e-01 -7.514600000000000446e-02 -5.577130000000000143e-01 -6.408509999999999485e-01 -3.356870000000000132e-01 2.373086999999999946e+00 9.229099999999999804e-02 -1.081639999999999963e-01 6.701999999999999624e-02 -1.333892999999999995e+00 -5.087580000000000435e-01 -9.474219999999999864e-01 -4.791839999999999988e-01 2.538790000000000102e+00 1.810479999999999867e-01 -7.012655999999999779e+00 7.432400000000000118e-02 -1.397772999999999932e+00 -3.629299999999999887e-02 1.745950000000000002e-01 1.587280000000000080e-01 5.878769999999999829e-01 -9.338469999999999827e-01 -1.653804999999999970e+00 8.791579999999999950e-01 -1.579579000000000066e+00 1.055500000000000015e-02 6.316810000000000480e-01 4.213770000000000016e-01 -2.315501999999999949e+00 -7.619799999999999907e-01 -4.610199999999999715e-02 6.625520000000000298e-01 8.276699999999999335e-02 7.021659999999999568e-01 6.558859999999999690e-01 1.592979999999999952e-01 -2.273300000000000043e-01 5.676879999999999704e-01 8.932769999999999877e-01 2.014674999999999994e+00 1.872983999999999982e+00 1.428231999999999946e+00
-1.088457999999999926e+00 -1.707151000000000085e+00 1.948951000000000100e+00 2.798740000000000117e-01 -6.443769999999999776e-01 1.510021000000000058e+00 -7.957987000000000144e+00 -6.583870000000000111e+00 -4.368463000000000207e+00 1.223370000000000013e-01 6.055059999999999887e-01 -2.723529000000000089e+00 2.515422000000000047e+00 1.499489999999999990e-01 -1.946128000000000080e+00 1.258010000000000073e+00 1.069500000000000034e-01 3.111000000000000050e-03 9.855110000000000259e-01 -8.733229999999999604e-01 4.750630000000000130e-01 5.543040000000000189e-01 6.649049999999999683e-01 6.692270000000000163e-01 1.204445999999999906e+00 3.017349999999999755e-01 4.823689999999999922e-01 9.235449999999999493e-01 -7.234599999999999365e-02 7.069560000000000288e-01 -9.818399999999999350e-02 5.139679999999999804e-01 -1.354219999999999868e-01 -5.978800000000000087e-02 -6.255319999999999769e-01 4.254879999999999773e-01 -8.968460000000000321e-01 6.601310000000000233e-01 -3.364269999999999761e-01 -3.203854000000000202e+00 -6.647429999999999728e-01 -3.651730000000000254e-01 3.296109999999999873e-01 -9.259830000000000005e-01 2.188969000000000165e+00 -1.082059000000000104e+00 1.307112000000000052e+00 -5.126129999999999853e-01 7.057050000000000267e-01 1.032769999999999938e-01 -1.254149999999999987e-01 -9.778379999999999850e-01 3.011730000000000240e-01 -1.946269999999999945e-01 -8.744509999999999783e-01 2.274753000000000025e+00 -1.883132000000000028e+00 -2.288570000000000049e-01 -2.447989999999999888e-01 -4.030380000000000074e-01 7.079159999999999897e-01 -9.133980000000000432e-01 -2.920039999999999858e-01 -2.232263999999999804e+00 -4.215039999999999898e-01 9.265210000000000390e-01 -1.496377000000000068e+00 -2.081427999999999834e+00 -1.927346000000000004e+00 -3.213280000000000025e-01 2.228239999999999998e+00 2.156150000000000011e-01 2.412967999999999780e+00 1.163079999999999892e+00 2.016264000000000056e+00 -9.341920000000000224e-01 -4.878430000000000266e-01 -2.803689999999999793e-01 8.573090000000000543e+00 5.087051999999999907e+00 6.337006999999999834e+00 -1.800640000000000018e-01 -2.304619999999999891e+00 2.181680000000000008e-01 4.401880000000000237e-01 -4.686299999999999910e-01 -6.112600000000000255e-01 -1.407599999999999997e-02 1.487222000000000044e+00 -1.398125000000000062e+00 1.020677999999999974e+00 1.179713999999999929e+00 -8.687139999999999862e-01 -3.869819999999999927e-01 8.847779999999999534e-01 2.480509999999999937e-01
-3.315219999999999834e-01 1.524162999999999935e+00 -8.949669999999999570e-01 -1.267433999999999950e+00 4.044999999999999984e-03 1.829850999999999894e+00 8.134430000000000271e-01 -1.226345000000000018e+00 -1.003529999999999978e-01 1.980949999999999933e-01 7.219879999999999631e-01 -6.950900000000000134e-02 4.040560000000000263e-01 -6.295699999999999907e-02 4.336519999999999819e-01 1.543276000000000092e+00 4.214709999999999845e-01 6.026019999999999710e-01 -1.351466000000000056e+00 6.727980000000000071e-01 -1.019087999999999994e+00 1.588387999999999911e+00 2.486990000000000034e+00 -2.231400000000000050e-02 2.261060000000000014e-01 -1.998769999999999991e-01 -6.534600000000000408e-01 -2.629630000000000023e-01 1.392606000000000011e+00 -1.715578000000000047e+00 2.852545000000000108e+00 -5.032299000000000078e+00 -2.222564000000000206e+00 6.231640000000000512e-01 -1.083270000000000066e-01 2.869090000000000251e-01 -7.397040000000000282e-01 6.206275999999999904e+00 -3.108520000000000172e-01 6.892380000000000173e-01 6.748999999999999791e-03 6.210000000000000242e-02 -3.162739999999999996e-01 2.204119999999999968e-01 -1.114549999999999985e-01 2.743980999999999781e+00 -2.671020000000000061e-01 -1.548680999999999974e+00 -3.014200000000000212e-01 1.583209999999999895e-01 1.854263999999999912e+00 -1.118529999999999941e-01 -1.370592999999999950e+00 5.998259999999999703e-01 -1.740734000000000004e+00 -1.058187999999999906e+00 -2.159159999999999968e-01 -2.406600000000000059e-02 6.256599999999999939e-01 -2.681300000000000003e-02 -1.550573999999999897e+00 1.039994000000000085e+00 -4.413759999999999906e-01 -1.228396000000000043e+00 -4.560109999999999997e-01 6.504229999999999734e-01 -2.781370000000000231e-01 -4.493960000000000177e-01 -6.706910000000000371e-01 1.134938999999999920e+00 -7.759970000000000478e-01 9.468889999999999807e-01 -1.815229999999999899e-01 -1.715178000000000091e+00 9.536930000000000129e-01 -1.031201000000000034e+00 -6.916269999999999918e-01 6.914350000000000218e-01 -3.620349999999999957e-01 -7.440099999999999492e-01 -2.839229999999999809e-01 -8.210399999999999920e-01 9.175539999999999807e-01 1.225031999999999899e+00 3.447899999999999854e-01 -4.683030000000000248e-01 -4.453239999999999976e-01 -1.042581999999999898e+00 -8.485120000000000440e-01 -2.021917999999999882e+00 -1.775932000000000066e+00 -1.149299000000000071e+00 1.509206000000000047e+00 1.556834999999999969e+00 2.249919999999999976e-01 1.128900000000000015e+00
1.819261000000000017e+00 3.105859999999999732e-01 7.491560000000000441e-01 7.182140000000000191e-01 2.530701000000000089e+00 9.662319999999999798e-01 -5.878699999999999898e-02 6.436840000000000339e-01 -1.029930000000000012e+00 1.897830000000000072e-01 1.159718000000000027e+00 2.387140000000000040e+00 -1.226796999999999915e+00 1.486558999999999964e+00 7.293129999999999891e-01 -1.958193999999999990e+00 -2.815891000000000144e+00 1.451270000000000060e+00 -6.508899999999999686e-01 1.368940000000000046e+00 -6.300980000000000469e-01 1.705896000000000079e+00 3.636054999999999815e+00 1.811512000000000011e+00 -4.537349999999999994e-01 6.048200000000000104e-02 -4.457030000000000158e-01 -8.207790000000000363e-01 -3.770620000000000083e-01 7.808019999999999960e-01 7.731510000000000327e-01 -1.451799999999999966e-02 -2.094538000000000011e+00 -7.550909999999999567e-01 -2.959992999999999874e+00 -3.312430000000000097e-01 1.554535999999999918e+00 1.431929999999999870e-01 1.128539999999999960e-01 5.380599999999999966e-02 -1.184955999999999898e+00 -3.395670000000000077e-01 -1.098076999999999970e+00 2.049859999999999793e+00 -3.016519999999999757e-01 -1.811471000000000053e+00 -2.736092999999999886e+00 -2.717099000000000153e+00 1.168854999999999977e+00 1.067855999999999916e+00 -6.949000000000000316e-03 3.575980000000000270e-01 -5.761629999999999807e-01 -5.819999999999999618e-01 -9.012989999999999613e-01 -3.879329999999999723e-01 -1.641821999999999893e+00 -1.589604999999999935e+00 -6.893479999999999608e-01 -1.608349000000000029e+00 -1.460400000000000066e-02 -1.654200000000000115e-02 -1.559200000000000030e-01 2.872999999999999998e-01 -3.782869999999999844e-01 -2.694399999999999920e-02 3.448189999999999866e-01 -3.497970000000000246e-01 5.057699999999999696e-02 6.933319999999999483e-01 -9.222700000000000342e-02 -1.648149999999999893e-01 -1.777670000000000083e+00 -1.237639999999999990e-01 1.103831000000000007e+00 1.097654099999999922e+01 -2.910642000000000174e+00 -5.257519999999999971e-01 -1.054481200000000030e+01 2.167335000000000012e+00 1.370465999999999962e+00 7.684389999999999832e-01 8.152989999999999959e-01 1.601869999999999961e-01 3.089891000000000165e+00 -7.301499999999999657e-01 1.350907000000000080e+00 1.515799999999999960e-02 -1.923713000000000006e+00 -1.524604999999999988e+00 1.052442000000000100e+00 8.392610000000000348e-01 6.599679999999999991e-01 -1.907211999999999907e+00 -1.244800000000000073e-02 4.427690000000000237e-01
-7.635539999999999550e-01 -1.306896000000000058e+00 1.400222999999999995e+00 -1.046297999999999950e+00 1.000807000000000002e+00 7.796210000000000084e-01 8.829939999999999456e-01 1.102520000000000028e-01 8.569919999999999760e-01 -5.589514000000000316e+00 1.075728000000000018e+00 6.084298999999999680e+00 1.551404000000000005e+00 1.565406999999999993e+00 1.314082999999999890e+00 -3.674450000000000216e-01 -3.830200000000000271e-01 -1.007991999999999999e+00 2.292791999999999941e+00 1.590332000000000079e+00 -2.312475000000000058e+00 -2.018850000000000089e-01 -7.131800000000000361e-01 -4.091920000000000002e-01 -4.381800000000000278e-02 5.884580000000000366e-01 -9.020960000000000090e-01 -1.954417000000000071e+00 3.956300000000000094e-02 9.025009999999999977e-01 -4.246929999999999872e-01 9.421920000000000295e-01 -1.554719999999999991e-01 -2.175025000000000208e+00 1.347072999999999965e+00 -8.008070000000000466e-01 7.091849999999999543e-01 1.012623999999999969e+00 -2.397370000000000057e-01 1.779242999999999908e+00 -3.130889999999999951e+00 -8.227870000000000461e-01 -4.952920000000000100e-01 6.787900000000000045e-01 -5.052379999999999649e-01 -5.014675000000000438e+00 -1.359396999999999966e+00 -8.591060000000000363e-01 1.468202000000000007e+00 -5.419690000000000341e-01 2.822811999999999877e+00 1.486709999999999976e+00 1.310489999999999988e-01 2.586169999999999858e-01 -2.020000000000000040e-04 -6.598460000000000436e-01 1.940270000000000050e-01 1.450466000000000033e+00 1.603051999999999921e+00 -2.410223999999999922e+00 2.836480000000000112e-01 -6.606090000000000018e-01 -1.994340000000000002e-01 -1.101264000000000021e+00 -5.392149999999999999e-01 2.811500000000000110e-02 -4.205169999999999741e-01 1.331993999999999900e+00 1.984329999999999983e-01 4.804769999999999874e-01 6.207300000000000317e-02 2.044315000000000104e+00 -2.704969999999999875e-01 3.746329999999999938e-01 -5.177899999999999725e-01 5.476299999999999918e-02 2.282069999999999932e-01 -9.484759999999999858e-01 -2.121200000000000030e-01 -4.372480000000000255e-01 7.517840000000000078e-01 1.826311999999999935e+00 6.871319999999999650e-01 -1.491049000000000069e+00 2.232300000000000118e-01 6.078399999999999775e-02 9.577400000000000357e-01 7.737749999999999906e-01 -2.694710000000000161e-01 1.238761000000000001e+00 4.748546000000000156e+00 -4.997548000000000101e+00 -6.502634999999999721e+00 6.946800000000000197e-02 5.691399999999999793e-01 2.521880000000000233e-01
-1.390682999999999891e+00 -9.355520000000000502e-01 5.382120000000000237e-01 1.849810000000000065e-01 3.633430000000000271e-01 -9.804260000000000197e-01 9.893429999999999724e-01 -5.539999999999999786e-02 -7.648220000000000018e-01 -3.111947999999999936e+00 3.761699999999999766e-02 -2.991473000000000049e+00 2.138199999999999878e+00 -5.112550000000000150e-01 -2.222465000000000135e+00 -1.237508999999999970e+00 1.069021999999999917e+00 4.952600000000000058e-02 -2.070699999999999971e-02 5.865099999999999758e-01 -5.859799999999999731e-02 -8.450590000000000046e-01 -2.740540000000000198e-01 1.297144999999999992e+00 -5.678330000000000322e-01 1.271750000000000103e-01 -3.097679999999999878e-01 6.396309999999999496e-01 -8.432749999999999968e-01 -3.400710000000000122e-01 -6.076789999999999692e-01 -5.907310000000000061e-01 3.673219999999999819e-01 -3.069620000000000015e+00 9.679799999999999516e-02 -7.433009999999999895e-01 1.874770000000000048e-01 5.986409999999999787e-01 6.480310000000000237e-01 1.475849999999999940e-01 9.088850000000000540e-01 3.050780000000000158e-01 6.512620000000000076e-01 2.415410000000000057e-01 -5.937419999999999920e-01 7.228830000000000533e-01 8.948730000000000295e-01 9.979339999999999877e-01 3.075339000000000045e+00 2.722010000000000041e+00 1.749154000000000098e+00 -6.295370000000000132e-01 5.234870000000000356e-01 -8.053000000000000436e-02 -8.010503999999999181e+00 4.215486000000000288e+00 -2.493897000000000030e+00 -1.623620999999999981e+00 1.459362000000000048e+00 4.522799999999999737e-02 6.260993000000000031e+00 -4.230643999999999849e+00 2.814540000000000042e+00 1.770780999999999938e+00 -5.356999999999999540e-01 9.133430000000000160e-01 -3.777460000000000262e-01 -1.026259999999999950e+00 -1.309619999999999951e-01 -6.659110000000000307e-01 -3.773929999999999785e-01 -2.857620000000000160e-01 3.115790000000000060e+00 -2.959077000000000179e+00 -1.100857999999999892e+00 4.403699999999999976e-02 -8.623020000000000129e-01 1.361644999999999994e+00 1.681670000000000109e-01 -2.706808000000000103e+00 -1.395092999999999916e+00 1.285010000000000041e-01 1.447403999999999913e+00 1.866843000000000030e+00 -1.784607000000000054e+00 4.855864999999999654e+00 -5.352740000000000276e-01 -4.838419999999999943e-01 -8.490569999999999506e-01 2.446500000000000064e-01 3.392081000000000124e+00 -2.535213999999999857e+00 3.519321000000000144e+00 8.097539999999999738e-01 -8.552969999999999740e-01 -1.690928999999999904e+00
4.928000000000000089e-03 -9.407799999999999496e-02 5.856430000000000247e-01 1.635520000000000029e-01 -5.722099999999999964e-01 4.930229999999999890e-01 -2.990349999999999953e-01 -1.480725999999999987e+00 9.149239999999999595e-01 3.539059999999999984e-01 1.261409000000000002e+00 -1.945570000000000022e+00 -2.602760000000000074e-01 7.072990000000000110e-01 1.096071000000000017e+00 2.852689999999999948e-01 1.425980000000000025e+00 -3.077130000000000143e-01 1.284329999999999916e-01 -1.058998000000000106e+00 -7.074439999999999618e-01 2.394432999999999812e+00 4.599880000000000080e-01 8.985600000000000531e-02 5.854800000000000282e-02 -9.085400000000000420e-02 -2.779999999999999832e-02 2.087253000000000025e+00 -7.129729999999999679e-01 1.472053999999999974e+00 -6.923380000000000090e-01 5.994359999999999689e-01 -5.811460000000000514e-01 -2.548846999999999863e+00 -3.287120000000000042e-01 1.226742999999999917e+00 8.012259999999999938e-01 2.193489999999999884e-01 -6.027679999999999705e-01 5.445400000000000240e-02 -3.642093000000000025e+00 -1.739417999999999909e+00 -1.324089999999999989e-01 -6.450200000000000378e-02 -1.516520000000000090e-01 -1.679427999999999921e+00 -1.494923000000000002e+00 1.774149999999999894e+00 6.760519999999999863e-01 -4.436590000000000256e-01 -5.434330000000000549e-01 1.970218999999999943e+00 4.433813999999999922e+00 -4.092173999999999978e+00 -3.635769999999999835e-01 -4.759749999999999814e-01 3.037499999999999922e-02 1.068130000000000052e-01 -1.892290000000000083e-01 -1.337810000000000110e-01 -5.888849999999999918e-01 1.107974999999999932e+00 -3.180299000000000209e+00 1.171648999999999941e+00 7.401600000000000401e-01 8.631739999999999968e-01 -3.485150000000000192e-01 5.523150000000000004e-01 2.270709999999999951e-01 -8.253040000000000376e-01 -1.443767999999999940e+00 1.111810000000000020e-01 -3.133059999999999734e-01 -1.439499999999999981e-02 -1.386133000000000060e+00 1.754630000000000078e-01 -1.393327999999999900e+00 -2.887350000000000194e-01 -2.195280000000000009e-01 -4.979870000000000130e-01 1.949832000000000010e+00 1.513530999999999960e+00 3.699321999999999999e+00 1.938755000000000006e+00 -3.206459999999999866e-01 3.034769999999999968e-01 6.629920000000000258e-01 6.421470000000000233e-01 5.560770000000000435e-01 -4.033500000000000280e-02 -3.690983000000000125e+00 -2.963779999999999748e-01 -2.370629999999999959e-01 -3.047980000000000134e-01 -1.771813000000000082e+00 2.529618999999999840e+00
7.340708000000000233e+00 -6.406023000000000245e+00 -2.601363999999999788e+00 -2.134072999999999887e+00 -1.033657999999999966e+00 2.664252999999999982e+00 5.838809999999999834e-01 8.080999999999999642e-03 1.051385000000000014e+00 1.866285999999999889e+00 -1.389893000000000045e+00 1.279832999999999998e+00 -3.398490000000000122e-01 2.459696999999999800e+00 -1.187032000000000087e+00 1.552151999999999976e+00 3.238079999999999847e-01 -1.336327000000000043e+00 -7.931869999999999754e-01 4.739760000000000084e-01 1.645861999999999936e+00 -1.773329999999999906e-01 -5.768419999999999659e-01 -6.040200000000000014e-01 -8.893022999999999456e+00 7.227847999999999828e+00 -4.596740000000000270e-01 -7.056580000000000075e-01 1.199063999999999908e+00 4.391030000000000211e-01 4.193239999999999745e-01 -7.931529999999999969e-01 -8.590349999999999930e-01 6.320750000000000535e-01 7.269579999999999931e-01 -6.057120000000000282e-01 -6.190919999999999757e-01 6.521160000000000290e-01 5.267399999999999860e-01 9.705059999999999798e-01 -3.053618000000000166e+00 -5.071109999999999784e-01 -2.010579999999999867e-01 -2.175249999999999961e-01 2.244170000000000054e-01 2.347148999999999930e+00 1.474530000000000007e-01 -1.916681000000000079e+00 -2.927551999999999932e+00 2.119130999999999876e+00 1.430471999999999966e+00 7.467340000000000089e-01 -3.701130000000000253e-01 -1.135718999999999923e+00 -1.284407000000000076e+00 2.156240000000000101e-01 1.277220000000000022e-01 7.767539999999999445e-01 9.367600000000000371e-01 -2.313060000000000116e-01 8.341499999999999471e-01 -5.283069999999999711e-01 -2.027660000000000018e+00 1.228859999999999952e-01 -1.412184000000000106e+00 2.829747999999999930e+00 3.462169999999999970e-01 -7.045099999999999696e-01 -3.509393999999999902e+00 5.699999999999999772e-04 1.389749999999999874e-01 4.459935999999999900e+00 4.616609999999999880e-01 -1.120605000000000073e+00 2.787869999999999848e+00 -4.793300000000000338e-02 -3.018700000000000272e-01 -2.867115000000000080e+00 -9.950379999999999781e-01 9.485000000000000098e-01 1.430050000000000043e+00 7.192499999999999449e-01 3.854609999999999981e-01 1.921410000000000062e-01 -2.348929999999999907e-01 -4.086719999999999797e-01 -4.038229999999999875e-01 5.631620000000000514e-01 9.215750000000000330e-01 1.051884999999999959e+00 -7.170499999999999652e-01 -8.637829999999999675e-01 -1.020799000000000012e+00 -2.133210000000000106e-01 2.957299999999999929e-01 -8.686460000000000292e-01
4.218500000000000028e-02 -5.638279999999999959e-01 -4.993440000000000101e-01 1.903615000000000057e+00 -3.629481000000000179e+00 -2.421936000000000089e+00 -1.102889999999999981e-01 1.767670000000000075e-01 8.523770000000000513e-01 5.881790000000000074e-01 -1.133829999999999893e+00 9.746000000000000218e-01 8.952704000000000661e+00 5.592999999999999972e+00 4.046706000000000358e+00 1.207994000000000012e+00 1.624182000000000015e+00 -1.683669999999999889e-01 -4.453799999999999981e-01 -5.173649999999999638e-01 -3.784549999999999859e-01 6.498169999999999780e-01 -6.414029999999999454e-01 4.791170000000000151e-01 1.075342999999999938e+00 1.481808999999999932e+00 -1.299779000000000018e+00 -7.155169999999999586e-01 -9.741180000000000394e-01 1.890573999999999977e+00 4.036300000000000304e-02 -3.653599999999999903e-02 3.634830000000000005e-01 1.033401999999999932e+00 -1.117626999999999926e+00 1.594295999999999935e+00 -9.346101000000000880e+00 -4.834965999999999653e+00 -4.747925999999999647e+00 -3.081430000000000002e-01 -4.383739999999999859e-01 9.668060000000000542e-01 4.574750000000000205e-01 -9.060909999999999798e-01 8.321299999999999530e-02 4.380470000000000197e-01 -1.784724999999999895e+00 1.449900000000000078e-01 1.992730000000000057e-01 2.941196999999999839e+00 7.523149999999999560e-01 -4.769849999999999923e-01 5.257260000000000266e-01 -4.049409999999999954e-01 -8.699189999999999978e-01 2.190030000000000032e-01 -9.241460000000000230e-01 9.469359999999999999e-01 -1.257238000000000078e+00 8.377940000000000387e-01 7.441189999999999749e-01 4.380700000000000149e-01 1.737209999999999865e-01 -2.366938000000000208e+00 8.543169999999999931e-01 2.665623000000000076e+00 -1.225576999999999916e+00 9.628750000000000364e-01 7.021589999999999776e-01 4.035469999999999891e-01 -1.811447999999999947e+00 -1.237540000000000084e+00 -7.043129999999999669e-01 7.950580000000000425e-01 1.780690000000000051e-01 -4.914600000000000218e-02 -1.357820000000000138e-01 -4.698860000000000259e-01 -9.432160000000000544e-01 4.924970000000000181e-01 -1.225058999999999898e+00 -1.057939999999999992e-01 7.503079999999999750e-01 -2.260407999999999973e+00 1.554530000000000078e-01 3.609660000000000091e-01 3.652569999999999983e-01 2.709000000000000036e-03 2.062405000000000044e+00 -8.937669999999999781e-01 -1.762949000000000099e+00 3.510710000000000219e-01 -9.000289999999999679e-01 5.891060000000000185e-01 1.535600000000000021e-01 7.604830000000000201e-01
-1.310373999999999928e+00 1.990199000000000051e+00 -1.445041999999999938e+00 -3.584930000000000061e-01 -8.900559999999999583e-01 -1.268720000000000125e-01 1.861615000000000020e+00 -1.180260000000000087e+00 -6.493740000000000068e-01 4.608068000000000275e+00 4.496637999999999913e+00 2.720291000000000015e+00 -3.122621000000000091e+00 2.295719999999999983e-01 5.141959999999999864e-01 8.456129999999999480e-01 -8.217740000000000045e-01 2.124369999999999870e+00 -5.789499999999999647e-01 -3.393720000000000070e-01 1.093739999999999990e-01 -1.259929999999999939e-01 -5.996050000000000546e-01 -6.511789999999999523e-01 -4.086139999999999772e-01 1.826270000000000115e-01 -1.385750000000000037e-01 2.229899999999999938e-02 9.491359999999999797e-01 3.097199999999999953e-01 -4.830470000000000041e-01 -3.937499999999999889e-01 -3.295000000000000186e-03 2.991159999999999930e-01 8.355500000000000149e-01 6.737269999999999648e-01 -1.282218999999999998e+00 -1.541951999999999989e+00 -5.792329999999999979e-01 -1.187027000000000054e+00 2.985365999999999964e+00 1.103051999999999921e+00 9.182979999999999476e-01 2.223700000000000121e-01 -1.018448000000000020e+00 -1.141844000000000081e+00 4.023240000000000149e-01 3.554229999999999889e-01 1.801230000000000109e+00 -8.456040000000000223e-01 3.832479999999999776e-01 -9.200049999999999617e-01 3.862510000000000110e-01 2.801541999999999977e+00 5.218720000000000026e-01 -8.050159999999999538e-01 -4.722979999999999956e-01 -1.430649999999999977e-01 -2.754360000000000142e-01 7.462630000000000097e-01 1.040745999999999949e+00 -1.496229000000000031e+00 -6.064789999999999903e-01 1.320832000000000006e+00 1.260860000000000092e+00 6.507439999999999891e-01 7.161929999999999685e-01 -9.160920000000000174e-01 -4.845920000000000227e-01 -9.413120000000000376e-01 4.215800000000000103e-01 -3.763699999999999685e-02 1.344365999999999950e+00 5.003710000000000102e-01 5.853080000000000505e-01 -3.620590000000000197e-01 7.015320000000000444e-01 -4.991459999999999786e-01 -6.138400000000000106e-02 3.516310000000000269e-01 -2.108099999999999904e-02 -4.730969999999999898e-01 -1.126630999999999938e+00 5.620810000000000528e-01 1.086278999999999995e+00 -1.473327000000000053e+00 -7.439059999999999562e-01 -2.001596000000000153e+00 -3.726874000000000020e+00 -4.444440000000000168e+00 -6.642780000000000351e-01 7.555070000000000396e-01 -1.690781000000000089e+00 -8.205510000000000304e-01 -2.395369999999999999e-01 -2.696000000000000132e-02
-2.115219999999999878e-01 -2.083250000000000102e-01 -8.126489999999999547e-01 -1.352989999999999915e+00 -4.788740000000000219e-01 -1.403728000000000087e+00 8.777019999999999822e-01 2.969249999999999945e-01 6.292100000000000470e-02 2.406530000000000058e-01 6.271910000000000540e-01 5.734510000000000440e-01 -1.325749999999999984e-01 -3.648930000000000229e-01 -2.137930000000000108e-01 1.793671000000000015e+00 -9.889999999999999902e-01 -1.561997999999999998e+00 -5.752823000000000242e+00 5.128522000000000247e+00 4.603539999999999854e-01 -3.711699999999999722e-02 -2.512780000000000014e-01 1.672557999999999989e+00 9.374369999999999647e-01 -7.971099999999999852e-01 9.381359999999999699e-01 8.123139999999999805e-01 -9.163099999999999579e-01 3.627730000000000121e-01 -5.774430000000000396e-01 1.619520000000000126e-01 -9.746759999999999868e-01 -2.848359999999999781e-01 -7.816990000000000327e-01 4.580819999999999892e-01 -1.590370000000000117e-01 -1.185953999999999953e+00 -8.914109999999999534e-01 -4.496330000000000049e-01 -2.970899999999999930e-02 2.545400000000000093e-02 2.113293000000000088e+00 8.591720000000000468e-01 1.492664999999999909e+00 1.600368999999999930e+00 -7.085600000000000231e-02 -1.029871999999999899e+00 -5.525109999999999744e-01 1.185173999999999950e+00 -4.083100000000000063e-01 9.979390000000000205e-01 5.782659999999999467e-01 -5.166799999999999865e-02 -1.373548999999999909e+00 4.290399999999999769e-01 1.288156000000000079e+00 2.219907000000000075e+00 5.197869999999999990e-01 -6.284579999999999611e-01 2.421632999999999925e+00 -4.435376999999999903e+00 -1.203802000000000039e+00 -1.175122000000000000e+00 1.748704999999999954e+00 -2.724769000000000219e+00 -1.573069000000000051e+00 -8.173970000000000402e-01 -5.398300000000000320e-02 -3.740669999999999829e-01 4.866260000000000030e-01 -1.896409000000000011e+00 2.137636000000000092e+00 -1.142841999999999913e+00 -1.546639000000000097e+00 -4.105039999999999800e-01 1.056966000000000072e+00 1.453383000000000091e+00 3.962247000000000074e+00 -1.515322000000000058e+00 -7.044580000000000286e-01 -2.593701999999999952e+00 1.147309999999999997e-01 1.963924000000000003e+00 -1.145550000000000040e-01 -8.683000000000000440e-02 8.711699999999999999e-02 -8.562000000000000166e-02 9.571610000000000396e-01 1.852193999999999896e+00 -4.485040000000000138e-01 -2.792259999999999742e-01 1.403410000000000046e+00 -2.455620999999999832e+00 2.007819999999999883e-01 2.012040999999999968e+00
-7.078800000000000370e-02 4.583070000000000199e-01 1.145904999999999951e+00 1.499962999999999935e+00 -8.302500000000000158e-02 9.394200000000000328e-01 2.757009999999999739e-01 -8.314820000000000544e-01 -3.461339999999999972e-01 -1.964420000000000055e-01 2.931999999999999884e-02 -5.070099999999999607e-01 -2.582229999999999803e-01 -1.483770000000000089e-01 4.919799999999999868e-02 -8.949200000000000488e-01 2.210211000000000148e+00 -7.960239999999999538e-01 -3.149379999999999957e-01 1.495499999999999885e-01 -1.020453999999999972e+00 -3.226862000000000119e+00 1.069382000000000055e+00 -5.298540000000000472e-01 1.762380999999999975e+00 1.667864000000000013e+00 -3.254770999999999859e+00 2.061068999999999818e+00 5.904330999999999996e+00 2.213779000000000163e+00 1.021340000000000026e-01 8.716699999999999449e-02 -2.036199999999999954e-01 -4.846600000000000213e-02 1.437940000000000051e-01 -1.350929999999999909e-01 5.880799999999999916e-02 -5.091320000000000290e-01 8.288170000000000259e-01 -4.067629999999999857e-01 2.725699999999999998e-02 4.754269999999999885e-01 7.353699999999999681e-01 -1.823792999999999997e+00 2.168397000000000130e+00 -9.155000000000000637e-02 -6.200900000000000162e-02 1.496210000000000040e-01 9.126020000000000243e-01 -1.795259999999999911e-01 1.791398000000000046e+00 -1.488170000000000048e-01 -4.341409999999999991e-01 5.748079999999999856e-01 -1.462330000000000019e-01 1.111120000000000024e-01 1.675599999999999867e-01 5.393989999999999618e-01 -2.504910000000000192e-01 2.390710000000000057e-01 -2.811919999999999975e-01 1.754419999999999868e-01 -1.609004000000000101e+00 -5.039390000000000258e-01 -3.098310000000000231e-01 -2.792700000000000182e-01 -1.340169999999999972e-01 -4.675389999999999824e-01 -9.326199999999999768e-02 3.759190000000000031e-01 -7.198499999999999344e-02 3.697399999999999992e-02 2.605407000000000028e+00 1.674978999999999996e+00 -6.188979999999999482e-01 8.166959999999999775e-01 -7.356307000000000151e+00 -2.982219999999999871e+00 -2.713780999999999999e+00 -1.263130000000000086e+00 1.227241000000000026e+00 5.636679999999999469e-01 3.503780000000000228e-01 -1.170859999999999956e-01 -1.184039000000000064e+00 1.624589999999999923e-01 -1.094335000000000058e+00 1.240250999999999992e+00 2.285260000000000069e-01 2.765139999999999820e-01 3.413229999999999875e-01 3.248300000000000076e-01 -1.485779999999999879e-01 -3.269719999999999960e+00 -9.841419999999999613e-01 1.451483000000000079e+00