-6.314260000000000428e-01 -1.446285000000000043e+00 7.163200000000000123e-02 -1.097879000000000049e+00 2.434729999999999950e-01 -1.997240000000000126e-01 -3.054470000000000240e-01 2.625250000000000083e-01 -9.013510000000000133e-01 4.943460000000000076e-01 -1.724050000000000027e-01 8.883699999999999930e-01 -1.248318999999999956e+00 -5.084649999999999448e-01 3.414690000000000225e-01 3.074529999999999763e-01 -9.769489999999999563e-01 5.940819999999999990e-01 1.114416000000000073e+00 -3.005000000000000032e-02 -1.482431000000000054e+00 2.109030000000000071e-01 -6.743869999999999587e-01 -3.424320000000000142e-01 2.041710000000000136e+00 1.542167999999999983e+00 9.179009999999999669e-01 -5.648100000000000342e-02 -1.404980000000000118e-01 3.536400000000000099e-01 -2.632979999999999765e-01 1.636738999999999944e+00 3.517507000000000161e+00 -8.168760000000000465e-01 -6.535069999999999490e-01 1.316796000000000078e+00 -1.391560000000000019e-01 -6.371449999999999614e-01 -1.116260999999999948e+00 -1.119879999999999987e+00 3.851649999999999796e-01 -1.615949999999999886e-01 3.671340000000000159e-01 5.315520000000000245e-01 5.087270000000000403e-01 2.630839999999999845e-01 -1.581314000000000108e+00 -3.358493999999999868e+00 -7.775999999999999579e-02 -2.407620000000000038e-01 -1.766179999999999972e-01 1.291145999999999905e+00 -3.351430000000000242e-01 -1.220249999999999946e-01 -1.923964999999999925e+00 1.384608000000000061e+00 -3.901919999999999833e-01 1.916636999999999924e+00 7.797720000000000207e-01 1.836513999999999980e+00 -1.568279999999999952e-01 7.621100000000000096e-02 -4.626129999999999964e-01 4.244580000000000020e-01 3.053549999999999875e-01 6.554929999999999923e-01 -1.383512999999999993e+00 -2.519890000000000185e-01 7.387320000000000553e-01 -4.234899999999999665e+00 3.890950000000000242e-01 -7.228646000000000349e+00 1.450104000000000060e+00 1.214995000000000047e+00 -1.604389000000000065e+00 -5.588149999999999507e-01 -9.757000000000000395e-02 -1.147959999999999953e-01 2.011110000000000120e-01 5.544480000000000519e-01 -8.472699999999999676e-02 -1.007134999999999891e+00 1.162070000000000047e-01 1.995821000000000067e+00 8.063850000000000184e-01 6.187479999999999647e-01 -5.263229999999999853e-01 1.178599999999999960e-02 -6.113899999999999890e-02 -7.378400000000000236e-02 1.497819999999999985e-01 1.306900000000000076e-02 -6.813500000000000112e-02 3.971223999999999865e+00 -2.246522999999999826e+00 4.677852999999999817e+00
-1.528670000000000029e-01 -5.474699999999999706e-02 6.906569999999999654e-01 -5.939189999999999747e-01 5.630600000000000049e-01 -1.034356000000000053e+00 1.821089999999999931e-01 -1.028129000000000071e+00 -5.317399999999999904e-01 9.202639999999999709e-01 -1.226350000000000051e+00 1.290674000000000099e+00 1.259938999999999920e+00 4.191340000000000066e-01 7.828049999999999731e-01 1.024656000000000011e+00 1.455292999999999948e+00 -8.279530000000000500e-01 2.004471999999999809e+00 1.237746000000000013e+00 -6.540730000000000155e-01 8.490809999999999746e-01 -3.818480000000000096e+00 -7.408133000000000301e+00 9.687550000000000328e-01 3.327789999999999915e-01 5.654160000000000297e-01 4.317019999999999746e-01 -1.253643000000000063e+00 2.265178000000000136e+00 -6.792160000000000419e-01 -2.136560000000000126e-01 -9.710339999999999527e-01 5.876050000000000439e-01 1.031638999999999973e+00 4.352360000000000118e-01 2.032650000000000012e-01 1.039133000000000084e+00 1.091389999999999999e-01 2.056318999999999786e+00 -5.389659999999999451e-01 -1.017001000000000044e+00 -1.716666999999999943e+00 3.606088000000000182e+00 7.081951000000000107e+00 -3.897959999999999758e-01 -2.329598999999999975e+00 7.405559999999999921e-01 1.044016999999999973e+00 -8.635779999999999568e-01 3.998099999999999987e-01 -6.127879999999999994e-01 -1.155469999999999969e-01 -1.346040000000000014e-01 8.092949999999999866e-01 -4.171909999999999785e-01 -1.694757000000000069e+00 -3.181840000000000224e-01 -1.627550999999999970e+00 -4.190789999999999793e-01 7.319399999999999518e-02 3.633750000000000036e-01 -3.381000000000000116e-01 2.727491999999999805e+00 2.911366000000000120e+00 -2.827567000000000164e+00 -6.935980000000000478e-01 3.735010000000000274e-01 4.202679999999999749e-01 -8.895889999999999631e-01 4.744650000000000256e-01 -2.608800000000000008e-01 -5.169800000000000090e-02 -3.579399999999999943e-02 1.873159999999999936e+00 -1.637583000000000011e+00 -7.806659999999999711e-01 4.829800000000000065e-02 -4.032819999999999738e-01 -6.665349999999999886e-01 -8.039789999999999992e-01 -1.400452999999999948e+00 7.267300000000000149e-02 -7.284499999999999309e-02 -7.180739999999999901e-01 -1.281950000000000034e-01 -8.696760000000000046e-01 -1.763659000000000088e+00 1.589609999999999912e-01 6.478429999999999467e-01 -2.031219999999999803e+00 1.350718000000000085e+00 2.012983999999999885e+00 -1.089571000000000067e+00 -2.913040000000000074e-01 5.018040000000000278e-01
