6.221852110265666091e+00 3.211208142476627891e+00 6.330131078742914141e+00 3.211208142476627891e+00 2.449360696762581391e+00 -6.324403300442834608e-01 6.330131078742914141e+00 -6.324403300442834608e-01 8.491684845348393296e+00
6.597858277511493341e+00 -6.834270564526178093e-01 -5.672545390141232602e+00 -6.834270564526178093e-01 8.267547083595061963e+00 8.776881055176101398e+00 -5.672545390141232602e+00 8.776881055176101398e+00 2.184614337530823036e+01
