6.317353778000000197e+00 0.000000000000000000e+00 0.000000000000000000e+00 -6.171010300000000226e-02 6.094547131999999756e+00 0.000000000000000000e+00 1.190484970000000031e-01 6.577748799999999507e-02 6.294807204999999684e+00
5.989633240999999941e+00 0.000000000000000000e+00 0.000000000000000000e+00 -1.328716689999999978e-01 5.928259592999999938e+00 0.000000000000000000e+00 1.025004350000000009e-01 8.964889000000000191e-03 6.090438282000000036e+00
6.024714381999999979e+00 0.000000000000000000e+00 0.000000000000000000e+00 1.180300350000000054e-01 6.251530223999999691e+00 0.000000000000000000e+00 -3.532180900000000262e-02 -1.338188400000000014e-02 6.278181326000000340e+00
6.036088340000000052e+00 0.000000000000000000e+00 0.000000000000000000e+00 -1.384014060000000046e-01 5.718300452000000256e+00 0.000000000000000000e+00 -3.213278099999999915e-02 -1.043190170000000000e-01 5.766149264000000052e+00
5.836194808000000123e+00 0.000000000000000000e+00 0.000000000000000000e+00 2.309438999999999936e-03 5.778737455999999995e+00 0.000000000000000000e+00 1.415691480000000058e-01 1.431888299999999926e-02 5.962712155000000180e+00
6.007313446000000390e+00 0.000000000000000000e+00 0.000000000000000000e+00 -1.332638800000000012e-01 5.945758634999999792e+00 0.000000000000000000e+00 1.028029959999999937e-01 8.991351999999999331e-03 6.108416043000000073e+00
5.921846726000000061e+00 0.000000000000000000e+00 0.000000000000000000e+00 -1.357819620000000060e-01 5.610073429999999917e+00 0.000000000000000000e+00 -3.152462200000000214e-02 -1.023446300000000059e-01 5.657016633999999655e+00
5.679179434999999998e+00 0.000000000000000000e+00 0.000000000000000000e+00 1.112606679999999931e-01 5.892986727000000258e+00 0.000000000000000000e+00 -3.329599999999999921e-02 -1.261439399999999926e-02 5.918109310000000178e+00
