-5.229455446000000052e+01
-5.200335932000000128e+01
-5.078684013000000164e+01
-5.307873046000000272e+01
-5.513380134999999882e+01
-5.336382722999999828e+01
-5.342397059999999698e+01
-5.477285627999999917e+01
