-7.774699999999999944e-01 -3.265000000000000124e-01 -3.134799999999999809e-01 -6.780400000000000316e-02 -7.664899999999999491e-02 9.359499999999999764e-02 4.478539999999999743e-01 2.732109999999999816e-01 4.274240000000000261e-01 4.249029999999999752e-01 3.292959999999999776e-01 2.535390000000000144e-01 5.792089999999999739e-01 8.807380000000000209e-01 1.410980000000000012e-01 -2.268030000000000046e-01 -7.694010000000000016e-01 3.650459999999999816e-01 1.718939999999999912e-01 -6.440000000000000412e-03 -2.382130000000000081e-01 -3.326599999999999696e-02 -9.151989999999999847e-01 2.713229999999999809e-01 -3.927723999999999993e+00 5.906365000000000087e+00 3.801943000000000072e+00 7.805959999999999566e-01 -6.458409999999999984e-01 -4.641620000000000190e-01 1.949940000000000007e-01 3.996770000000000045e-01 3.221760000000000179e-01 2.124080000000000135e-01 1.112176000000000053e+00 6.306300000000000239e-01 3.109312000000000076e+00 -5.300476999999999883e+00 -4.676908000000000065e+00 -4.359129999999999949e-01 4.178930000000000144e-01 8.963000000000000134e-02 -3.512040000000000162e-01 -4.042089999999999850e-01 -4.773390000000000133e-01 -1.009869999999999934e-01 -8.746399999999999730e-01 -2.263010000000000022e-01
5.236669999999999936e-01 -1.206299000000000010e+00 -9.365529999999999688e-01 -1.049260999999999999e+00 -1.940423999999999927e+00 3.395700000000000163e+00 6.350090000000000456e-01 1.142125000000000057e+00 -2.743180000000000063e-01 -1.727254000000000067e+00 1.485516999999999976e+00 7.981620000000000381e-01 -2.691488000000000103e+00 6.768200000000000605e-02 6.182800000000000101e-02 -5.851150000000000517e-01 -9.379450000000000287e-01 -1.634349999999999969e-01 7.052787000000000361e+00 -7.893660000000000121e-01 2.390636000000000205e+00 3.577350000000000252e-01 1.324389000000000038e+00 3.193429999999999880e-01 1.063533999999999979e+00 9.364670000000000494e-01 1.022693999999999992e+00 -7.788000000000000256e+00 -4.511229999999999962e-01 -1.774613999999999914e+00 3.990114999999999856e+00 1.378306999999999949e+00 -1.281441000000000052e+00 7.265650000000000164e-01 -1.229790000000000050e-01 -5.247319999999999762e-01 -2.249259999999999871e-01 -1.100756999999999985e+00 -2.686884000000000050e+00 -5.512139999999999818e-01 -2.396510000000000029e-01 -2.020480000000000054e-01 -4.711850000000000205e-01 -1.306410000000000071e-01 -6.193769999999999554e-01 7.390299999999999647e-01 5.846970000000000223e-01 4.750400000000000178e-01
-2.110186999999999813e+00 2.749829000000000079e+00 -1.722080999999999973e+00 -4.697048999999999808e+00 -2.460233000000000114e+00 1.529458999999999902e+00 -8.677500000000000491e-02 -1.595809999999999951e+00 -6.912000000000000088e-02 -3.440639999999999810e-01 2.098095999999999961e+00 1.306491999999999987e+00 1.764790000000000081e+00 -5.755080000000000195e-01 -1.324230000000000129e-01 -2.181131000000000153e+00 1.848716000000000026e+00 3.189630999999999883e+00 -7.735999999999999821e-03 1.274385000000000101e+00 -3.163699999999999846e-02 5.349350000000000493e-01 8.195449999999999680e-01 1.709839000000000109e+00 1.013306000000000040e+00 -4.142850000000000144e-01 -1.560667999999999944e+00 -5.200240000000000418e-01 5.868160000000000043e-01 -5.256589999999999874e-01 -6.259550000000000392e-01 -8.709860000000000380e-01 -2.849799999999999903e-02 5.312339999999999840e-01 2.586789999999999923e-01 -1.101929999999999993e-01 6.970670000000000144e+00 -2.969527999999999945e+00 -2.451840999999999937e+00 8.635040000000000493e-01 -1.722172999999999954e+00 -1.511781000000000041e+00 -3.326990000000000225e-01 3.479689999999999728e-01 -2.833729999999999860e-01 -7.728190000000000337e-01 6.244910000000000183e-01 6.918530000000000513e-01
-1.103534000000000015e+00 -1.280526999999999971e+00 -5.355619999999999825e-01 -2.815567999999999849e+00 -6.269108000000000125e+00 -4.281210999999999878e+00 4.422340000000000160e-01 -1.223009000000000013e+00 1.311355000000000048e+00 -7.980340000000000211e-01 -1.627388999999999974e+00 9.962140000000000439e-01 3.044520000000000004e-01 -1.073999999999999955e-01 2.981278000000000095e+00 1.404029999999999889e+00 1.306362000000000023e+00 -3.767320000000000113e-01 -5.663709999999999578e-01 -6.784459999999999935e-01 5.248620000000000507e-01 3.121039999999999925e-01 2.762009999999999743e-01 -7.549320000000000475e-01 1.465299999999999936e-02 8.432169999999999943e-01 -5.518969999999999709e-01 8.844769999999999577e-01 5.855650000000000022e-01 -5.248340000000000227e-01 -7.490639999999999521e-01 3.161649999999999738e-01 -2.653200000000000003e-01 -2.889860000000000206e-01 -2.899970000000000048e-01 -1.258080000000000087e+00 2.541678999999999800e+00 7.505963000000000385e+00 3.711901000000000117e+00 1.199759000000000020e+00 1.379289999999999961e-01 -9.082970000000000210e-01 -1.278065000000000007e+00 2.825785999999999909e+00 -3.107059999999999822e-01 4.962329999999999797e-01 -2.321311999999999820e+00 2.419600000000000084e-01
1.166036999999999990e+00 -4.596359999999999890e-01 -8.429600000000000426e-01 2.545695999999999959e+00 -4.110570000000000057e-01 -4.012180000000000191e-01 -8.242399999999999727e-02 -2.594409999999999772e-01 2.075369999999999993e-01 -4.817159999999999775e-01 6.328580000000000316e-01 -7.002530000000000143e-01 -3.562949999999999728e-01 -5.869459999999999678e-01 4.656099999999999822e-02 -8.225320999999999216e+00 9.215879999999999628e-01 -5.744960000000000067e-01 7.536129999999999773e-01 -8.367390000000000105e-01 2.985189999999999788e-01 -4.817359999999999975e-01 -2.520830000000000015e-01 9.503519999999999746e-01 4.684510000000000063e-01 1.485390999999999906e+00 -6.884649999999999936e-01 -3.608762000000000025e+00 -5.667219999999999480e-01 5.110170000000000545e-01 -8.985200000000000131e-02 8.901219999999999688e-01 -2.570779999999999732e-01 -7.901390000000000358e-01 3.360049999999999981e-01 1.445950000000000069e+00 -2.602209999999999801e-01 -3.382020000000000026e-01 6.670279999999999543e-01 1.061620999999999926e+00 -3.001332999999999807e+00 -1.930169999999999941e-01 1.598239999999999938e-01 2.575380000000000003e+00 2.912139999999999729e-01 8.221223999999999421e+00 -1.291869999999999963e-01 -7.606920000000000348e-01
-4.722379999999999911e-01 8.319140000000000423e-01 -6.802730000000000166e-01 -1.176530000000000076e+00 8.613690000000000513e-01 -6.354919999999999458e-01 -3.012460000000000138e-01 -1.008672000000000013e+00 -4.494779999999999887e-01 9.325369999999999493e-01 -9.546550000000000313e-01 -8.960010000000000474e-01 -2.859840000000000160e-01 1.521282000000000023e+00 7.194749999999999757e-01 -1.038666000000000089e+00 5.169939999999999536e-01 -5.852359999999999784e-01 -8.653110000000000523e-01 -2.897850000000000148e-01 1.128822999999999910e+00 -6.243109999999999493e-01 -1.069700000000000095e+00 -5.265299999999999842e-02 5.404403000000000290e+00 -2.809941999999999940e+00 6.024576999999999849e+00 -2.925708000000000197e+00 -8.758789999999999631e-01 1.773859000000000075e+00 1.947206999999999910e+00 8.125780000000000225e-01 -1.913953000000000015e+00 7.991209999999999702e-01 -6.817370000000000374e-01 7.734689999999999621e-01 8.437860000000000360e-01 5.138299999999999812e-02 -1.329461000000000004e+00 1.070478000000000041e+00 -1.270548999999999928e+00 5.895129999999999537e-01 1.452341000000000104e+00 -1.909599999999999909e-01 4.653229999999999866e-01 -4.759878999999999749e+00 4.556358999999999604e+00 -4.932493000000000016e+00
-2.203459999999999863e-01 1.176692000000000071e+00 2.351729999999999932e-01 -1.895330000000000070e-01 -6.256019999999999914e-01 -5.080700000000000216e-01 4.643499999999999850e-01 -8.574279999999999680e-01 4.359350000000000169e-01 1.315582000000000029e+00 2.383814999999999795e+00 1.020151999999999948e+00 -5.637419999999999654e-01 2.032747000000000082e+00 5.203360000000000207e-01 1.013112000000000013e+00 2.747139000000000220e+00 1.036977000000000038e+00 -3.633623000000000047e+00 -2.058460999999999874e+00 2.038126000000000104e+00 6.979199999999999848e-01 -2.297314000000000078e+00 2.349680000000000102e-01 9.931879999999999598e-01 -1.528853000000000018e+00 2.373389999999999944e-01 -1.638579999999999925e+00 3.050490000000000146e-01 -5.895529999999999937e-01 -8.045649999999999746e-01 -5.495710000000000317e-01 8.148710000000000120e-01 -1.127917000000000058e+00 1.502947999999999951e+00 2.436482999999999954e+00 2.317569999999999908e+00 -2.455048999999999815e+00 -2.316377000000000130e+00 -1.774550000000000016e-01 2.653599999999999848e-01 7.415589999999999682e-01 1.329058000000000073e+00 7.841519999999999602e-01 -5.158813000000000315e+00 2.249790000000000123e-01 -8.256240000000000245e-01 -1.179106999999999905e+00
-1.612439999999999984e-01 1.170841000000000021e+00 5.768969999999999931e-01 5.409559999999999924e-01 9.314729999999999954e-01 2.499300000000000133e-02 -1.760600000000000012e-02 -2.051295999999999786e+00 1.897858999999999963e+00 8.101770000000000360e-01 -3.053600000000000064e-02 -1.344838999999999896e+00 4.013189999999999813e-01 5.877179999999999627e-01 -9.985299999999999732e-02 4.833670999999999829e+00 -1.851747999999999950e+00 -2.313305999999999862e+00 -8.101059999999999928e-01 2.099289000000000183e+00 2.060191000000000106e+00 -4.223323999999999856e+00 2.694630000000000081e-01 -2.763964000000000087e+00 -2.391040000000000110e-01 -8.331399999999999917e-01 2.365644000000000080e+00 -7.717929999999999513e-01 -1.854310000000000125e-01 2.863930000000000087e-01 -9.639879999999999560e-01 -6.045310000000000406e-01 -1.130560000000000009e+00 3.176959999999999784e-01 -9.755500000000000282e-02 -1.553369999999999918e+00 1.670860000000000123e-01 -2.255540000000000045e-01 -8.633859999999999868e-01 -1.310696000000000083e+00 -7.794990000000000530e-01 5.667389999999999928e-01 1.330181000000000058e+00 1.167570999999999914e+00 4.555420000000000025e-01 9.677700000000000191e-02 4.329339999999999855e-01 1.835021999999999931e+00
