2.271659999999999791e+00 6.493200000000000083e-01 3.855000000000000093e-01 3.381229999999999958e+00 3.841880000000000184e+00 3.035690000000000222e+00 5.352389999999999759e+00 2.120299999999999851e+00 2.071210000000000218e+00 3.514429999999999943e+00 1.380509999999999904e+00 3.596610000000000085e+00 3.075200000000000156e+00 4.165140000000000065e+00 6.836299999999999599e-01 4.557330000000000325e+00 2.472780000000000200e+00 5.774659999999999904e+00 6.032530000000000392e+00 3.998990000000000045e+00 4.328430000000000000e+00 1.804619999999999891e+00 5.143959999999999866e+00 6.192129999999999690e+00 1.560910000000000020e+00 5.023340000000000138e+00 2.422590000000000021e+00 1.287609999999999921e+00 6.862000000000000322e-01 4.381920000000000037e+00 1.970999999999999974e-01 4.058200000000000141e-01 9.961100000000000509e-01 3.918699999999999850e+00 3.189999999999999780e-02 1.723780000000000090e+00 1.624640000000000084e+00 2.312489999999999934e+00 2.196849999999999969e+00 2.280260000000000176e+00 2.465009999999999923e+00 5.370000000000000107e+00 5.294310000000000294e+00 4.313220000000000276e+00 1.020350000000000090e+00 4.559000000000000163e+00 5.859020000000000117e+00 5.641399999999999970e+00
5.351750000000000007e+00 3.583439999999999959e+00 6.323499999999999677e-01 3.203530000000000211e+00 6.019790000000000418e+00 4.327130000000000365e+00 4.866629999999999789e+00 2.935839999999999783e+00 4.900949999999999918e+00 8.259199999999999875e-01 2.352390000000000203e+00 1.769209999999999949e+00 5.813170000000000393e+00 2.662599999999999967e-01 4.448300000000000032e-01 2.748810000000000198e+00 3.869949999999999779e+00 2.122219999999999995e+00 1.971440000000000081e+00 1.575439999999999952e+00 8.047999999999999599e-02 3.717159999999999798e+00 5.494410000000000238e+00 7.322699999999999765e-01 1.653669999999999973e+00 6.107750000000000234e+00 1.808540000000000036e+00 1.935000000000000053e+00 4.669810000000000016e+00 4.054479999999999862e+00 8.127900000000000125e-01 1.236199999999999938e-01 4.643830000000000346e+00 5.838470000000000049e+00 9.509199999999999875e-01 3.203510000000000080e+00 1.215170000000000083e+00 4.427349999999999675e+00 6.181580000000000297e+00 3.648460000000000036e+00 1.570109999999999895e+00 2.269080000000000208e+00 5.201450000000000351e+00 4.482960000000000278e+00 2.874699999999999811e+00 1.757489999999999997e+00 2.130910000000000082e+00 4.195640000000000036e+00
9.993699999999999806e-01 3.069329999999999892e+00 4.667279999999999873e+00 1.918730000000000047e+00 1.966199999999999948e+00 2.093290000000000095e+00 2.668639999999999901e+00 4.034069999999999823e+00 6.248070000000000235e+00 7.918300000000000338e-01 1.703989999999999894e+00 3.957499999999999907e-01 5.575299999999999701e-01 8.116600000000000481e-01 3.527680000000000149e+00 8.634999999999999620e-02 5.252720000000000056e+00 5.811689999999999579e+00 5.141539999999999999e+00 3.056760000000000144e+00 6.327499999999999680e+00 4.634820000000000384e+00 4.698089999999999655e+00 8.423699999999999521e-01 1.901890000000000081e+00 2.047599999999999976e-01 1.179400000000000032e-01 3.976899999999999880e-01 3.904370000000000118e+00 1.256000000000000005e+00 4.831900000000000084e+00 6.495699999999999807e-01 1.245649999999999924e+00 2.738900000000000112e+00 9.115100000000000424e-01 4.791570000000000107e+00 5.456900000000000084e+00 5.151119999999999699e+00 3.633039999999999825e+00 3.760269999999999779e+00 3.783399999999999874e+00 3.932409999999999961e+00 2.792910000000000004e+00 5.376219999999999999e+00 2.304850000000000065e+00 5.105389999999999873e+00 1.007640000000000091e+00 5.091639999999999944e+00
7.730799999999999894e-01 1.549000000000000099e-01 3.801709999999999923e+00 1.427820000000000089e+00 4.098340000000000316e+00 4.672589999999999577e+00 5.156620000000000203e+00 4.290519999999999889e+00 3.924519999999999786e+00 9.917500000000000204e-01 1.516110000000000069e+00 5.903760000000000119e+00 5.956150000000000055e+00 3.478099999999999969e+00 6.417100000000000026e-01 9.361699999999999466e-01 2.730869999999999909e+00 2.820180000000000131e+00 2.713389999999999969e+00 1.078389999999999960e+00 9.196699999999999875e-01 5.340320000000000178e+00 2.028129999999999988e+00 4.061659999999999826e+00 3.075759999999999827e+00 5.704270000000000174e+00 5.533059999999999867e+00 5.973690000000000389e+00 5.777319999999999567e+00 5.749419999999999753e+00 3.320899999999999963e+00 3.252660000000000107e+00 5.689790000000000347e+00 5.841809999999999725e+00 7.946600000000000330e-01 1.758979999999999988e+00 4.299199999999999910e+00 2.664839999999999876e+00 2.082260000000000222e+00 3.805820000000000203e+00 5.286080000000000112e+00 1.021479999999999944e+00 3.143860000000000099e+00 4.488909999999999734e+00 3.113360000000000127e+00 2.916859999999999786e+00 2.143159999999999954e+00 3.979060000000000041e+00
5.189700000000000202e+00 1.846600000000000019e+00 1.610619999999999941e+00 3.066549999999999887e+00 3.359800000000000009e-01 2.424949999999999939e+00 2.106599999999999862e-01 3.968339999999999979e+00 4.627200000000000202e+00 2.220940000000000136e+00 4.930460000000000065e+00 2.796079999999999899e+00 5.313069999999999737e+00 1.615229999999999944e+00 3.690240000000000187e+00 5.605649999999999800e+00 4.852000000000000202e-01 6.077460000000000306e+00 4.889059999999999739e+00 3.903220000000000134e+00 6.408109999999999751e+00 4.703499999999999903e-01 5.419830000000000148e+00 8.200300000000000367e-01 2.609919999999999796e+00 4.717060000000000031e+00 4.428900000000000059e-01 1.798149999999999915e+00 1.640000000000000069e-01 5.656179999999999986e+00 1.441699999999999982e+00 1.909669999999999979e+00 3.123380000000000045e+00 4.764050000000000118e+00 6.011510000000000353e+00 1.513290000000000024e+00 2.021300000000000041e-01 6.340220000000000411e+00 3.624670000000000059e+00 3.544760000000000133e+00 1.990040000000000031e+00 6.493730000000000224e+00 3.696229999999999905e+00 3.170230000000000103e+00 3.828359999999999985e+00 5.977999999999999980e-01 6.851000000000000423e-01 1.342070000000000096e+00
5.197359999999999758e+00 4.856119999999999770e+00 1.964390000000000081e+00 3.730669999999999931e+00 1.377899999999999903e+00 5.387480000000000047e+00 1.875499999999999945e+00 2.455700000000000216e+00 4.687839999999999563e+00 6.197949999999999626e+00 2.858089999999999797e+00 2.838960000000000150e+00 4.929640000000000022e+00 3.260349999999999859e+00 2.752000000000000002e-01 3.578030000000000044e+00 3.222309999999999786e+00 2.955849999999999866e+00 1.821350000000000025e+00 1.381369999999999987e+00 1.741370000000000084e+00 8.091300000000000159e-01 5.944119999999999848e+00 2.829159999999999897e+00 3.085539999999999949e+00 5.936930000000000263e+00 1.033649999999999958e+00 2.314919999999999867e+00 4.917320000000000135e+00 5.099269999999999747e+00 5.894300000000000095e-01 4.429560000000000386e+00 4.253500000000000059e-01 5.031010000000000204e+00 8.427799999999999736e-01 1.167599999999999971e+00 3.114850000000000119e+00 3.166030000000000122e+00 1.429700000000000137e-01 3.775999999999999912e-01 7.820000000000000284e-01 5.565570000000000128e+00 5.006809999999999761e+00 4.505230000000000068e+00 4.416719999999999757e+00 2.682580000000000187e+00 4.065400000000000125e-01 3.518180000000000085e+00
4.886110000000000397e+00 4.534950000000000259e+00 2.065150000000000041e+00 3.542829999999999924e+00 8.242899999999999672e-01 4.435749999999999638e+00 5.805099999999999705e-01 1.535590000000000011e+00 4.884929999999999772e+00 4.654800000000000049e-01 3.818220000000000169e+00 3.676740000000000119e+00 4.540519999999999889e+00 3.188349999999999795e+00 1.652899999999999925e-01 2.916519999999999779e+00 4.522780000000000022e+00 6.433600000000000430e-01 1.877890000000000059e+00 3.383399999999999741e-01 2.362410000000000121e+00 4.384610000000000340e+00 2.817509999999999959e+00 3.689799999999999969e+00 4.687789999999999679e+00 4.845900000000000207e-01 5.860100000000000309e-01 2.450610000000000177e+00 2.674459999999999837e+00 4.747869999999999813e+00 3.182699999999999974e-01 4.621069999999999567e+00 7.026099999999999568e-01 2.501910000000000078e+00 6.518199999999999550e-01 1.810599999999999987e-01 3.435839999999999783e+00 2.348790000000000155e+00 2.228549999999999809e+00 5.549780000000000157e+00 4.540000000000000147e-01 2.737600000000000033e+00 5.061309999999999754e+00 4.944370000000000154e+00 5.064420000000000144e+00 1.953089999999999993e+00 5.249839999999999840e+00 4.837329999999999686e+00
4.725660000000000416e+00 3.790869999999999962e+00 1.862579999999999902e+00 5.284279999999999866e+00 9.170800000000000063e-01 5.230540000000000411e+00 1.220129999999999937e+00 1.649219999999999908e+00 4.107070000000000221e+00 1.336710000000000065e+00 5.455250000000000377e+00 1.812780000000000058e+00 4.935700000000000087e-01 3.421819999999999862e+00 6.139400000000000190e+00 3.512789999999999857e+00 2.895989999999999842e+00 4.301370000000000360e+00 6.582200000000000273e-01 1.219559999999999977e+00 1.166029999999999900e+00 5.950300000000000367e+00 5.188399999999999679e-01 3.139159999999999950e+00 3.956389999999999851e+00 6.198470000000000368e+00 1.055870000000000086e+00 1.144919999999999938e+00 5.449760000000000382e+00 4.711240000000000094e+00 2.355550000000000033e+00 2.229439999999999866e+00 2.119819999999999816e+00 5.054050000000000153e+00 2.240959999999999841e+00 8.504199999999999537e-01 2.806789999999999896e+00 3.808330000000000215e+00 1.009300000000000058e-01 6.041970000000000063e+00 5.411699999999999733e+00 3.755000000000000004e-01 3.539590000000000014e+00 5.477960000000000385e+00 4.859759999999999636e+00 3.341909999999999936e+00 7.375800000000000134e-01 3.162479999999999958e+00
6.207810000000000272e+00 6.331879999999999953e+00 2.177750000000000075e+00 2.939169999999999838e+00 2.519550000000000178e+00 3.873190000000000133e+00 4.611970000000000347e+00 2.500249999999999861e+00 7.840999999999999359e-02 6.473700000000000010e-01 5.015249999999999986e+00 4.310279999999999667e+00 1.982569999999999943e+00 3.406410000000000160e+00 5.254489999999999661e+00 4.464489999999999625e+00 4.758729999999999905e+00 4.224980000000000402e+00 2.660600000000000187e-01 3.562780000000000058e+00 5.348000000000000531e-01 1.808110000000000106e+00 1.926379999999999981e+00 1.326600000000000001e+00 3.641210000000000058e+00 7.834699999999999998e-01 1.861949999999999994e+00 4.848049999999999748e+00 1.424590000000000023e+00 3.715380000000000127e+00 1.584009999999999918e+00 5.404370000000000118e+00 2.170400000000000107e-01 4.187439999999999607e+00 5.290390000000000370e+00 2.086000000000000076e-01 4.733649999999999913e+00 3.427059999999999995e+00 2.648489999999999789e+00 8.383899999999999686e-01 1.318240000000000078e+00 5.187350000000000350e+00 5.461200000000000498e-01 2.755090000000000039e+00 3.406369999999999898e+00 3.177929999999999922e+00 6.139700000000000157e-01 5.274689999999999657e+00
