-4.932895154999999932e+01
-4.889424537000000015e+01
-4.775634394000000071e+01
-5.007072141999999815e+01
-4.673822313000000150e+01
-4.862030433000000329e+01
-4.875934628000000259e+01
-4.867197928000000218e+01
-4.854271866999999929e+01
