-3.836881933000000089e+01
-3.731435474999999968e+01
-3.761131177000000037e+01
-3.721718411999999887e+01
-3.992476045000000084e+01
-3.831596679999999822e+01
-3.877631802999999877e+01
-3.847709138999999823e+01
-3.815837969999999757e+01
-3.818750037000000219e+01
-3.848279227999999819e+01
-3.946954562999999894e+01
-3.876063254000000313e+01
-4.051211539999999900e+01
-3.725501143999999698e+01
-4.014808106000000265e+01
