2.436117374000000169e+00 0.000000000000000000e+00 0.000000000000000000e+00 8.760720800000000585e-02 4.216123994000000152e+00 0.000000000000000000e+00 -1.150413500000000006e-01 -4.839684870000000028e-01 1.982819029399999877e+01
2.421781129999999838e+00 0.000000000000000000e+00 0.000000000000000000e+00 -8.664611899999999367e-02 4.148060216000000189e+00 0.000000000000000000e+00 -2.565447450000000185e-01 -5.288236200000000220e-02 1.878759205000000065e+01
2.470837293999999851e+00 0.000000000000000000e+00 0.000000000000000000e+00 -3.613040900000000222e-02 4.366491764000000053e+00 0.000000000000000000e+00 -1.669880559999999958e-01 1.363400690000000082e-01 1.851233713499999922e+01
2.546582091999999964e+00 0.000000000000000000e+00 0.000000000000000000e+00 -1.115779699999999985e-01 4.569111703999999996e+00 0.000000000000000000e+00 -6.343279389999999518e-01 -3.419340140000000083e-01 2.211637895100000151e+01
2.539702484999999843e+00 0.000000000000000000e+00 0.000000000000000000e+00 1.271953480000000136e-01 4.336999428999999573e+00 0.000000000000000000e+00 1.819503120000000029e-01 -3.762711910000000048e-01 1.980205364500000087e+01
2.761061213000000070e+00 0.000000000000000000e+00 0.000000000000000000e+00 -5.295840699999999901e-02 4.608489527999999780e+00 0.000000000000000000e+00 4.857459840000000195e-01 -4.744477799999999995e-02 1.876710423100000114e+01
2.589213534000000205e+00 0.000000000000000000e+00 0.000000000000000000e+00 -1.235999750000000008e-01 4.569649521999999742e+00 0.000000000000000000e+00 -5.079717009999999977e-01 -4.760364260000000125e-01 2.224647232199999891e+01
2.486081641999999814e+00 0.000000000000000000e+00 0.000000000000000000e+00 -1.213814690000000057e-01 4.381129664999999562e+00 0.000000000000000000e+00 6.620499700000000154e-02 -4.783461600000000341e-02 2.151068620799999920e+01
2.483540437999999906e+00 0.000000000000000000e+00 0.000000000000000000e+00 9.083636200000000382e-02 4.438261100000000070e+00 0.000000000000000000e+00 -4.428225809999999929e-01 -2.188648209999999872e-01 1.777533947899999944e+01
2.436117374000000169e+00 0.000000000000000000e+00 0.000000000000000000e+00 8.760720800000000585e-02 4.216123994000000152e+00 0.000000000000000000e+00 -1.150413500000000006e-01 -4.839684870000000028e-01 1.982819029399999877e+01
2.589213534000000205e+00 0.000000000000000000e+00 0.000000000000000000e+00 -1.235999750000000008e-01 4.569649521999999742e+00 0.000000000000000000e+00 -5.079717009999999977e-01 -4.760364260000000125e-01 2.224647232199999891e+01
2.623115536999999886e+00 0.000000000000000000e+00 0.000000000000000000e+00 -6.310224000000000388e-02 4.488742799999999811e+00 0.000000000000000000e+00 -1.814475819999999961e-01 6.578383399999999936e-02 1.825494258699999861e+01
2.421781129999999838e+00 0.000000000000000000e+00 0.000000000000000000e+00 -8.664611899999999367e-02 4.148060216000000189e+00 0.000000000000000000e+00 -2.565447450000000185e-01 -5.288236200000000220e-02 1.878759205000000065e+01
2.486081641999999814e+00 0.000000000000000000e+00 0.000000000000000000e+00 -1.213814690000000057e-01 4.381129664999999562e+00 0.000000000000000000e+00 6.620499700000000154e-02 -4.783461600000000341e-02 2.151068620799999920e+01
2.546977757000000064e+00 0.000000000000000000e+00 0.000000000000000000e+00 -2.078599600000000103e-02 4.425949850000000296e+00 0.000000000000000000e+00 -2.851522439999999992e-01 2.916096320000000075e-01 1.667590843700000036e+01
