-4.428560000000000274e-01 9.779999999999999805e-02 4.042390000000000150e-01 -3.054569999999999785e-01 -6.882819999999999494e-01 2.940869999999999873e-01 -9.419279999999999875e-01 -1.755999999999999965e-03 1.082700000000000051e-01 1.031669999999999948e-01 -7.040039999999999631e-01 7.652889999999999970e-01 -3.729549999999999810e-01 -6.078299999999999675e-02 -2.384364000000000150e+00 6.234699999999999964e-02 -5.980170000000000208e-01 -9.583420000000000272e-01 7.177040000000000086e-01 5.214860000000000051e-01 9.627949999999999564e-01 6.668899999999999828e-02 2.926940000000000097e-01 -5.302179999999999671e-01 -3.680180000000000118e-01 5.056270000000000486e-01 -4.238049999999999873e-01 7.048929999999999918e-01 -2.983699999999999894e-02 1.636263999999999941e+00 4.352039999999999798e-01 6.001400000000000068e-01 3.331939999999999902e-01 3.412109999999999865e-01 6.493200000000000360e-02 -2.074080000000000090e-01
3.519220000000000126e-01 -9.345189999999999886e-01 1.550373000000000001e+00 8.465730000000000199e-01 -4.516709999999999892e-01 -2.490080000000000071e-01 -6.313090000000000090e-01 1.209678999999999949e+00 -6.547000000000000042e-02 -8.114289999999999559e-01 5.535729999999999817e-01 8.928960000000000230e-01 3.559970000000000079e-01 6.112499999999999600e-01 2.496839999999999893e-01 2.836529999999999885e-01 -4.404629999999999934e-01 -3.615740000000000065e-01 -3.338430000000000009e-01 -6.335469999999999713e-01 -7.253070000000000350e-01 -2.127779999999999949e-01 -8.119049999999999878e-01 -5.024330000000000185e-01 1.967939999999999967e-01 8.718759999999999843e-01 3.386454000000000075e+00 -3.033730000000000038e-01 -7.110940000000000039e-01 -9.585979999999999501e-01 2.832790000000000030e-01 5.968609999999999749e-01 -2.610379999999999923e-01 -2.548500000000000071e-02 1.399610000000000021e-01 -2.955979999999999830e+00
4.427960000000000229e-01 3.176720000000000099e-01 -5.416760000000000463e-01 -3.214440000000000075e-01 8.988490000000000091e-01 4.983020000000000227e-01 5.945310000000000317e-01 -6.345399999999999929e-01 -2.500950000000000117e-01 3.100439999999999863e-01 9.749520000000000408e-01 1.546510999999999969e+00 -6.654710000000000347e-01 -7.213209999999999900e-01 -1.018519999999999981e-01 -5.827399999999999941e-02 -2.285197999999999841e+00 1.506814000000000098e+00 1.531150000000000011e-01 9.511669999999999847e-01 -1.184600000000000063e-02 1.866520000000000123e-01 -9.561159999999999659e-01 -4.472479999999999789e-01 -4.232460000000000111e-01 -5.732019999999999893e-01 -7.733250000000000401e-01 5.949170000000000291e-01 6.136319999999999553e-01 5.103799999999999448e-01 -2.180070000000000063e-01 -1.037690000000000001e+00 3.627989999999999826e-01 -5.956139999999999768e-01 2.451795000000000169e+00 -2.298763999999999807e+00
1.125000000000000000e+00 2.429445999999999994e+00 -4.393870000000000275e-01 -1.360911999999999900e+00 -2.714205999999999896e+00 -1.037066999999999961e+00 3.304719999999999880e-01 -1.576719999999999899e+00 -6.167589999999999462e-01 -1.060640000000000055e-01 -4.197469999999999812e-01 3.782289999999999819e-01 4.492490000000000094e-01 6.215870000000000006e-01 6.724609999999999754e-01 -4.613689999999999736e-01 1.592856999999999967e+00 -1.299569999999999892e-01 5.309059999999999890e-01 -2.064439000000000135e+00 2.577189999999999759e-01 -3.442209999999999992e-01 1.556299000000000099e+00 -5.818769999999999776e-01 -2.737299999999999733e-01 -3.738179999999999836e-01 -2.624380000000000046e-01 -4.400199999999999945e-02 1.669467000000000034e+00 -6.399059999999999748e-01 7.189820000000000100e-01 -3.800839999999999774e-01 2.127987000000000073e+00 -5.643120000000000358e-01 -3.406410000000000271e-01 2.709960000000000147e-01
-4.204499999999999904e-01 6.898469999999999880e-01 -1.265110000000000123e-01 -7.851669999999999483e-01 -8.128640000000000310e-01 1.082432999999999979e+00 1.959720000000000073e-01 1.046774000000000093e+00 -3.446259999999999879e-01 1.537999999999999923e-01 1.175580000000000069e+00 3.203670000000000129e-01 -3.880009999999999848e-01 -1.262607999999999953e+00 6.918699999999999850e-02 -7.478400000000000325e-02 2.148919999999999997e-01 1.265932999999999975e+00 -8.910740000000000327e-01 -7.352459999999999551e-01 3.136400000000000299e-02 4.755000000000000199e-02 -9.598619999999999930e-01 -2.661417999999999839e+00 8.098159999999999803e-01 2.397269999999999956e-01 -4.161499999999999921e-02 7.177750000000000519e-01 1.743446000000000051e+00 2.085650000000000004e-01 3.097280000000000033e-01 -4.613189999999999791e-01 1.963009999999999922e+00 3.248349999999999849e-01 -8.783680000000000376e-01 -1.766686999999999896e+00
-1.023189999999999933e-01 1.492999999999999969e-03 5.518939999999999957e-01 -1.291411000000000087e+00 -1.396840000000000026e-01 1.141671000000000102e+00 -1.552870000000000084e-01 -8.993900000000000505e-02 1.696969999999999867e-01 1.015762999999999971e+00 2.171049999999999924e-01 -2.112544000000000199e+00 3.666760000000000019e-01 8.852899999999999658e-02 -8.517069999999999919e-01 1.124769999999999937e-01 -8.602039999999999687e-01 3.511830000000000229e-01 -2.914939999999999753e-01 -3.289779999999999927e-01 -1.311390000000000056e+00 3.600929999999999964e-01 6.214610000000000412e-01 5.347150000000000514e-01 7.795910000000000339e-01 2.792439999999999922e-01 -2.490749999999999909e-01 -4.931269999999999820e-01 2.567860000000000142e-01 1.147345000000000059e+00 -3.969460000000000210e-01 1.022279999999999994e-01 1.021182999999999952e+00 9.598399999999999987e-02 -1.480410000000000059e-01 -3.929710000000000147e-01
7.539200000000000068e-02 -1.490378999999999898e+00 1.315296999999999938e+00 2.433589999999999920e-01 2.595480000000000009e-01 -1.184460000000000068e+00 -2.234289999999999887e-01 -4.998099999999999765e-01 -2.201799999999999868e-01 -3.021249999999999769e-01 1.559579000000000049e+00 -5.347690000000000499e-01 5.048559999999999715e-01 1.694100000000000120e-02 1.764779999999999960e-01 1.789100000000000135e-01 -1.329984999999999973e+00 -7.019140000000000379e-01 3.766650000000000276e-01 -1.723999999999999977e-01 -1.198589999999999933e-01 4.657250000000000001e-01 3.541219999999999923e-01 2.466510000000000091e-01 -5.833009999999999584e-01 -1.940969999999999918e-01 1.839689999999999936e-01 -7.536739999999999551e-01 1.465967999999999938e+00 8.086229999999999807e-01 -6.722699999999999509e-02 -2.520680000000000143e-01 -1.859409999999999952e-01 8.484899999999999387e-02 2.825810000000000266e-01 2.161049999999999915e-01
-4.343739999999999823e-01 9.555050000000000487e-01 -2.006700000000000150e-02 8.843800000000000272e-02 -1.368524999999999991e+00 7.118910000000000515e-01 -8.031570000000000098e-01 -6.093730000000000535e-01 -6.284149999999999459e-01 -1.040520000000000056e-01 -9.098000000000000531e-02 4.106658999999999615e+00 2.025049999999999906e-01 -3.187500000000000056e-02 -6.783430000000000293e-01 6.625599999999999545e-02 1.831584000000000101e+00 -1.733848999999999974e+00 5.459030000000000271e-01 6.531540000000000123e-01 -2.526889999999999969e-01 -3.791930000000000023e-01 1.470676000000000094e+00 4.399790000000000090e-01 9.758799999999999419e-02 -8.043489999999999807e-01 5.695210000000000550e-01 2.942359999999999975e-01 -1.951758000000000104e+00 4.286599999999999855e-01 3.579439999999999844e-01 -8.849820000000000464e-01 6.166580000000000394e-01 6.790499999999999314e-02 8.309239999999999959e-01 -3.560004000000000168e+00
2.277649999999999952e-01 -2.797830000000000039e-01 7.476089999999999680e-01 -6.511360000000000481e-01 -1.581009999999999915e-01 -4.985649999999999804e-01 6.985569999999999835e-01 -1.045628000000000002e+00 -9.041719999999999757e-01 -6.379500000000000448e-02 -1.077450999999999937e+00 -2.912580000000000169e-01 7.969659999999999522e-01 8.766359999999999708e-01 3.603927999999999798e+00 -1.041369999999999935e-01 9.944450000000000234e-01 3.708009999999999917e-01 -7.414900000000000657e-02 1.167769999999999975e+00 1.026490000000000041e-01 -6.540100000000000080e-02 7.686859999999999804e-01 -6.897250000000000325e-01 3.541500000000000203e-02 -1.501300000000000030e-02 3.581280000000000019e-01 -5.329009999999999581e-01 5.605630000000000335e-01 -7.628690000000000193e-01 5.327400000000000191e-02 -6.801650000000000196e-01 -2.179439999999999988e-01 -3.204560000000000186e-01 -1.111957000000000084e+00 -1.818581000000000003e+00
-1.250269999999999992e-01 7.882639999999999647e-01 -1.243309999999999971e-01 2.566500000000000031e-02 3.272140000000000049e-01 3.527980000000000005e-01 3.811900000000000011e-02 7.218550000000000244e-01 -1.035999999999999976e-01 -2.236700000000000077e-01 6.877800000000000580e-02 -4.016113999999999962e+00 8.445999999999999341e-02 -4.436769999999999881e-01 -2.028449999999999975e-01 -3.775040000000000062e-01 6.197460000000000191e-01 1.279638999999999971e+00 1.555259999999999976e-01 -3.643810000000000104e-01 2.696842000000000183e+00 1.210600000000000009e-01 -1.240359999999999935e-01 1.293784000000000045e+00 -1.048699999999999979e-02 -3.142799999999999760e-02 -4.398239999999999927e-01 4.228799999999999781e-01 -5.315849999999999742e-01 1.060354000000000019e+00 -2.251190000000000135e-01 -4.045360000000000067e-01 -7.413039999999999630e-01 1.140960000000000030e-01 -6.262159999999999949e-01 -1.055401999999999951e+00
-2.636769999999999947e-01 -4.231790000000000274e-01 2.796290000000000164e-01 -2.871630000000000016e-01 9.732060000000000155e-01 3.114230000000000054e-01 -4.857299999999999812e-02 -2.781100000000000239e-01 -1.009447999999999901e+00 4.454199999999999826e-02 -7.082499999999999907e-02 -3.435999999999999818e-03 3.579950000000000077e-01 -4.107379999999999920e-01 -4.571499999999999869e-02 3.380750000000000144e-01 -1.725059999999999927e-01 -2.766938000000000120e+00 8.207510000000000083e-01 -4.834900000000000309e-02 7.144660000000000455e-01 5.351350000000000273e-01 5.541019999999999834e-01 2.878740000000000188e-01 -5.440420000000000256e-01 -6.059120000000000061e-01 4.253060000000000174e-01 -8.584509999999999641e-01 8.835199999999999998e-02 1.660833000000000004e+00 6.169100000000000278e-02 3.166700000000000070e-02 -5.475399999999999712e-02 -1.562840000000000062e-01 3.622909999999999742e-01 2.007589999999999930e-01
1.994390000000000107e+00 5.120350000000000179e-01 3.467580000000000107e-01 -5.909360000000000168e-01 5.432770000000000099e-01 -3.328669000000000100e+00 -7.452800000000000535e-01 3.149129999999999985e-01 -3.747030000000000083e-01 2.015999999999999997e-03 -4.054559999999999831e-01 9.975000000000000533e-02 -7.250969999999999915e-01 -1.634780000000000122e-01 -6.800910000000000011e-01 5.662600000000000272e-02 4.264400000000000135e-02 -3.686010000000000120e-01 1.616259999999999919e-01 4.406979999999999786e-01 -6.849429999999999685e-01 3.281680000000000152e-01 4.947840000000000016e-01 -2.010639999999999927e-01 5.240690000000000071e-01 -4.741819999999999924e-01 1.815710000000000102e-01 -4.328239999999999865e-01 -6.315089999999999870e-01 4.597204999999999764e+00 -3.373929999999999985e-01 -4.201599999999999779e-01 1.332180000000000031e-01 -2.353669999999999929e-01 -2.535649999999999848e-01 2.795679999999999832e-01
5.545029999999999681e-01 -4.194970000000000088e-01 1.955919999999999881e-01 6.780979999999999785e-01 4.242730000000000112e-01 4.236489999999999978e-01 -3.971959999999999935e-01 -1.729284000000000043e+00 -1.785895000000000010e+00 -6.881169999999999787e-01 -3.410210000000000186e-01 1.415899999999999936e-01 -1.498549999999999882e-01 1.799204000000000025e+00 8.806739999999999569e-01 7.134139999999999926e-01 4.159370000000000012e-01 5.591299999999999742e-02 -2.545000000000000040e-02 -1.991970000000000129e-01 -1.310169999999999946e-01 -2.399910000000000099e-01 7.283900000000000097e-02 -1.780770000000000131e-01 -6.124549999999999716e-01 -6.689859999999999696e-01 3.186943999999999999e+00 -6.992019999999999902e-01 2.332259999999999889e-01 7.939140000000000086e-01 -2.054100000000000023e-02 4.600949999999999762e-01 -7.209699999999999442e-02 8.867930000000000534e-01 -4.759000000000000036e-02 -3.511191000000000173e+00
8.515300000000000646e-02 2.964069999999999760e-01 2.245790000000000008e-01 -2.040420000000000011e-01 -1.217106999999999939e+00 -2.932159999999999767e-01 1.999700000000000089e-01 -8.297409999999999508e-01 -3.195009999999999795e-01 -5.633599999999999719e-02 2.924579999999999957e-01 6.307890000000000441e-01 -1.747720000000000107e-01 1.331423999999999941e+00 1.012794999999999890e+00 3.917869999999999964e-01 -4.220240000000000102e-01 4.463119999999999865e-01 -1.272220000000000018e-01 1.689730000000000121e-01 5.380900000000000266e-02 -3.530329999999999857e-01 1.153181000000000012e+00 9.640600000000000280e-01 1.773649999999999949e-01 -1.021495000000000042e+00 8.678050000000000486e-01 5.689180000000000348e-01 -1.535990000000000133e-01 -3.441676000000000180e+00 -1.297889999999999877e-01 -2.618619999999999837e-01 -3.762880000000000114e-01 -3.779989999999999739e-01 6.633829999999999449e-01 2.305329999999999879e-01
-5.279570000000000096e-01 1.284740000000000049e-01 -4.090499999999999692e-02 -3.920159999999999756e-01 -1.258428000000000102e+00 -3.218239999999999990e-01 9.963290000000000202e-01 1.000547000000000075e+00 -6.623959999999999848e-01 -1.590640000000000109e-01 -1.080939999999999956e-01 -3.960290000000000199e-01 1.673099999999999934e-02 6.239590000000000414e-01 1.146800000000000042e-01 1.484449999999999936e-01 2.605759999999999743e-01 -1.255259999999999987e-01 1.751359000000000110e+00 1.536500000000000019e-02 3.267847999999999864e+00 -1.391640000000000099e-01 -6.410059999999999647e-01 2.001149999999999873e-01 3.819690000000000030e-01 1.376017999999999963e+00 -2.868859999999999744e-01 -1.981269999999999976e-01 -7.241520000000000179e-01 6.765440000000000342e-01 -9.772640000000000216e-01 3.931140000000000190e-01 -2.412230999999999792e+00 -9.012400000000000411e-01 -1.066373000000000015e+00 -1.339000000000000086e-02
