2.240289999999999893e+00 2.697919999999999874e+00 1.164949999999999974e+01 1.021399999999999947e-01 2.696029999999999927e+00 9.260300000000000198e-01 4.443730000000000402e+00 1.351949999999999985e+00 2.944650000000000212e+00 2.327809999999999935e+00 1.358079999999999954e+00 1.225170000000000092e+00 4.435229999999999784e+00 3.690000000000000224e-02 5.054909999999999570e+00 4.447729999999999961e+00 1.382239999999999913e+00 7.100819999999999688e+00 2.197680000000000078e+00 1.378530000000000033e+00 5.473200000000000287e+00 3.559999999999999797e-03 1.344459999999999988e+00 1.134730000000000061e+01 2.231949999999999878e+00 1.350870000000000015e+00 9.612140000000000128e+00 4.465519999999999712e+00 2.669760000000000133e+00 9.234799999999999898e+00 2.208390000000000075e+00 2.284999999999999878e-02 7.546429999999999971e+00 2.213400000000000034e+00 2.681960000000000122e+00 3.327350000000000030e+00
1.384999999999999946e-02 1.327790000000000026e+00 6.498429999999999929e+00 2.074460000000000193e+00 4.806400000000000117e-01 1.221979999999999933e+01 2.077580000000000204e+00 2.518599999999999728e-01 1.380800000000000083e-01 4.030669999999999753e+00 2.038050000000000139e+00 1.136640000000000050e+01 3.992080000000000073e+00 1.148239999999999927e+00 3.771090000000000053e+00 3.988269999999999982e+00 1.061749999999999972e+00 8.899409999999999599e+00 1.103500000000000036e-01 1.560559999999999947e+00 1.280310000000000059e+00 1.862100000000000088e+00 2.304269999999999818e+00 1.000740000000000052e+01 1.986399999999999944e+00 3.491699999999999804e-01 5.126990000000000158e+00 2.081440000000000179e+00 3.783000000000000251e-02 2.569370000000000154e+00 2.037290000000000045e+00 4.084000000000000130e-02 7.579839999999999911e+00 5.695999999999999674e-02 1.672360000000000069e+00 2.067839999999999989e+01
2.265080000000000204e+00 1.282480000000000064e+00 1.015749999999999931e+00 3.098000000000000059e-02 1.574000000000000052e-02 4.838910000000000267e+00 4.277840000000000309e+00 3.899999999999999994e-02 9.145450000000000301e+00 2.119000000000000217e+00 2.625249999999999861e+00 3.174679999999999946e+00 2.078260000000000218e+00 1.344289999999999985e+00 9.620929999999999538e+00 2.132559999999999789e+00 3.903999999999999831e-02 7.459730000000000416e+00 4.321720000000000006e+00 1.336160000000000014e+00 2.719889999999999919e+00 2.365839999999999943e+00 2.176000000000000156e-02 1.169219999999999970e+01 9.095000000000000306e-02 2.620810000000000084e+00 6.760800000000000143e-01 4.336450000000000138e+00 1.351920000000000011e+00 7.005889999999999951e+00 1.008600000000000052e-01 1.264510000000000023e+00 1.134759999999999991e+01 2.217859999999999943e+00 1.355180000000000051e+00 5.321720000000000006e+00
4.124900000000000233e+00 1.139299999999999979e+00 1.112780000000000058e+01 2.030489999999999906e+00 2.466369999999999951e+00 7.467259999999999565e+00 1.929000000000000159e-02 1.101679999999999993e+00 6.704559999999999853e+00 2.538999999999999937e-02 2.196400000000000019e-01 4.417469999999999786e+00 2.162199999999999900e+00 1.392919999999999936e+00 5.170720000000000205e+00 2.179240000000000066e+00 1.322000000000000119e-01 2.986720000000000041e+00 1.303999999999999881e-01 1.295099999999999862e-01 2.031149999999999878e+01 2.052249999999999908e+00 2.342750000000000110e+00 1.180579999999999963e+01 1.967799999999999994e+00 1.197100000000000053e+00 9.644170000000000798e+00 2.283990000000000187e+00 1.387029999999999985e+00 7.004799999999999915e-01 1.351300000000000001e-01 1.419499999999999984e+00 2.200750000000000206e+00 3.993009999999999948e+00 2.413209999999999855e+00 8.979110000000000369e+00
3.201499999999999790e+00 1.131050000000000111e+00 7.821099999999999719e-01 3.051969999999999850e+00 7.760000000000000404e-03 2.948789999999999800e+00 2.124199999999999977e-01 2.018999999999999961e-02 5.048040000000000305e+00 1.697599999999999998e+00 1.054199999999999998e-01 7.147300000000000431e+00 1.084999999999999964e+00 2.468789999999999818e+00 9.051000000000000156e-01 8.335500000000000131e-01 1.270450000000000079e+00 3.114910000000000068e+00 3.839309999999999778e+00 1.543360000000000065e+00 7.341350000000000264e+00 3.666040000000000187e+00 4.533000000000000224e-02 9.461690000000000822e+00 1.327599999999999891e+00 2.647289999999999921e+00 1.147160000000000046e+01 2.543509999999999938e+00 1.387820000000000054e+00 4.929649999999999643e+00 3.466270000000000184e+00 1.325930000000000053e+00 1.151570000000000071e+01 1.412630000000000052e+00 1.342750000000000110e+00 9.352539999999999409e+00
2.087349999999999817e+00 4.134300000000000197e-01 7.568749999999999645e+00 2.130669999999999842e+00 6.386100000000000110e-01 2.640109999999999957e+00 2.144320000000000004e+00 1.326459999999999972e+00 5.345060000000000144e+00 6.297999999999999432e-02 3.335400000000000031e-01 4.144540000000000113e+00 2.047039999999999971e+00 2.090450000000000141e+00 3.744799999999999796e-01 2.075270000000000170e+00 2.220380000000000020e+00 9.716920000000000002e+00 2.067029999999999923e+00 1.788159999999999972e+00 1.218219999999999992e+01 9.696000000000000452e-02 1.913040000000000074e+00 6.401640000000000441e+00 3.978019999999999889e+00 7.186200000000000365e-01 1.873669999999999902e+01 8.182999999999999996e-02 1.747130000000000072e+00 1.793109999999999982e+00 4.096960000000000157e+00 1.226520000000000055e+00 8.792930000000000135e+00 3.949510000000000076e+00 6.180499999999999883e-01 1.112950000000000017e+01
2.737239999999999895e+00 1.301469999999999905e+00 9.316420000000000812e+00 3.371649999999999814e+00 2.661979999999999791e+00 1.130860000000000021e+01 1.441969999999999974e+00 1.456919999999999993e+00 5.208560000000000301e+00 1.376249999999999973e+00 2.695030000000000037e+00 3.143400000000000194e+00 1.255169999999999897e+00 1.188369999999999926e+00 1.156290000000000084e+01 6.063000000000000334e-02 9.805999999999999439e-02 1.161149999999999904e+00 4.307210000000000427e+00 1.360510000000000108e+00 7.429509999999999614e+00 3.572970000000000201e+00 1.411040000000000072e+00 3.196740000000000137e+00 5.974099999999999966e-01 2.595149999999999846e+00 9.408839999999999648e+00 2.111769999999999925e+00 2.681569999999999787e+00 7.294349999999999667e+00 3.789229999999999876e+00 8.197000000000000119e-02 5.269319999999999560e+00 2.222389999999999866e+00 1.439489999999999936e+00 1.142430000000000057e+00
2.028779999999999806e+00 1.246779999999999999e+00 6.273800000000000487e-01 4.106160000000000032e+00 2.477809999999999846e+00 8.739470000000000738e+00 2.022200000000000220e+00 2.446460000000000079e+00 1.174740000000000073e+01 7.201000000000000456e-02 1.338300000000000045e+00 6.507719999999999949e+00 2.113729999999999887e+00 8.377999999999999337e-02 2.925050000000000150e+00 1.456000000000000003e-02 2.458979999999999944e+00 4.319779999999999731e+00 2.134209999999999940e+00 2.453800000000000203e+00 7.263090000000000046e+00 2.099400000000000155e+00 1.255489999999999995e+00 5.087329999999999686e+00 4.118439999999999657e+00 1.241640000000000077e+00 1.104850000000000065e+01 2.021020000000000039e+00 1.246150000000000091e+00 9.529400000000000759e+00 5.897000000000000158e-02 1.215570000000000039e+00 2.081850000000000200e+00 4.028450000000000308e+00 7.498000000000000498e-02 1.544899999999999984e+01
1.795779999999999932e+00 1.627000000000000113e-01 7.286410000000000053e+00 7.882599999999999607e-01 8.988099999999999978e-01 1.154860000000000042e+01 2.026079999999999881e+00 2.254000000000000101e-02 2.760099999999999998e+00 3.913310000000000066e+00 1.213249999999999940e+00 7.181210000000000093e+00 4.299339999999999939e+00 1.339669999999999916e+00 2.546629999999999949e+00 5.276499999999999524e-01 2.481669999999999821e+00 9.405340000000000700e+00 2.723580000000000112e+00 1.353739999999999943e+00 9.408340000000000813e+00 2.172979999999999912e+00 1.503779999999999895e+00 5.211929999999999730e+00 9.480000000000000579e-03 8.032999999999999863e-02 4.643489999999999895e+00 2.868619999999999948e+00 2.436040000000000205e+00 1.156900000000000084e+01 3.444869999999999877e+00 8.737000000000000322e-02 5.054199999999999804e-01 1.260969999999999924e+00 1.460550000000000015e+00 5.289300000000000113e-01
3.269670000000000076e+00 1.513100000000000001e-01 1.152079999999999949e+01 2.726249999999999840e+00 1.344189999999999996e+00 9.342670000000000030e+00 3.951010000000000133e+00 2.548169999999999824e+00 4.949480000000000324e+00 3.690910000000000135e+00 2.477970000000000006e+00 8.584000000000000519e-01 3.333079999999999821e+00 1.145380000000000065e+00 2.951729999999999965e+00 1.502029999999999976e+00 1.159219999999999917e+00 8.627200000000000424e-01 2.379399999999999959e+00 2.584680000000000089e+00 7.142820000000000391e+00 6.806100000000000483e-01 2.252200000000000035e-01 9.112989999999999924e+00 1.786599999999999966e+00 1.274990000000000068e+00 4.884310000000000151e+00 1.220569999999999933e+00 2.345279999999999809e+00 2.700540000000000163e+00 1.049739999999999895e+00 1.720730000000000093e+00 1.128659999999999997e+01 2.410400000000000043e-01 1.278499999999999970e+00 6.982319999999999638e+00
2.624810000000000088e+00 7.689999999999999787e-03 7.271690000000000431e+00 7.816199999999999815e-01 2.437310000000000088e+00 9.436849999999999739e+00 3.469840000000000035e+00 1.403000000000000080e-02 5.857099999999999529e-01 3.584369999999999834e+00 2.360279999999999934e+00 1.158370000000000033e+01 3.200540000000000163e+00 1.585450000000000026e+00 2.770659999999999901e+00 1.771949999999999914e+00 1.512270000000000003e+00 5.076749999999999652e+00 3.046450000000000102e+00 1.250639999999999974e+00 9.482849999999999113e+00 1.003169999999999895e+00 1.553900000000000003e-01 2.988970000000000127e+00 1.163219999999999921e+00 1.447549999999999892e+00 9.822199999999999820e-01 1.312259999999999982e+00 1.056689999999999907e+00 1.135529999999999973e+01 4.423400000000000110e-01 1.341590000000000060e+00 7.248509999999999565e+00 3.936819999999999986e+00 1.272500000000000020e-01 5.235660000000000203e+00
3.590000000000000135e-02 2.270469999999999988e+00 1.142329999999999934e+01 4.879999999999999789e-03 7.746899999999999897e-01 8.971930000000000405e+00 4.029099999999999682e+00 1.755079999999999973e+00 1.213940000000000019e+00 4.873000000000000248e-02 4.855000000000000288e-02 3.880279999999999951e+00 2.019629999999999814e+00 1.589679999999999982e+00 4.909270000000000245e+00 2.188009999999999788e+00 1.284180000000000099e+00 1.240109999999999957e+01 1.967470000000000052e+00 2.690899999999999959e-01 1.018050000000000033e+01 3.940360000000000085e+00 4.415999999999999925e-01 6.357260000000000133e+00 3.963960000000000150e+00 1.282540000000000013e+00 1.766169999999999973e+01 2.102269999999999861e+00 4.095599999999999796e-01 2.527499999999999858e+00 2.061240000000000183e+00 1.880670000000000064e+00 7.738400000000000389e+00 1.949899999999999967e+00 2.672399999999999776e-01 1.868092000000000041e+01
1.050000000000000065e-02 2.440100000000000158e+00 4.211199999999999943e-01 4.227450000000000152e+00 1.106800000000000006e+00 2.483369999999999855e+00 2.227160000000000029e+00 1.285709999999999908e+00 5.331830000000000069e+00 2.213519999999999932e+00 1.159099999999999991e-01 1.165830000000000055e+01 4.884999999999999759e-02 1.434609999999999941e+00 1.119209999999999994e+01 2.085449999999999804e+00 2.356419999999999959e+00 3.142860000000000209e+00 2.178990000000000204e+00 1.165759999999999907e+00 8.890400000000000524e-01 3.339000000000000301e-02 1.413440000000000030e+00 6.830750000000000099e+00 4.864000000000000268e-02 5.206000000000000211e-02 4.676700000000000301e+00 2.091509999999999980e+00 1.448380000000000001e+00 9.550380000000000535e+00 4.237750000000000128e+00 1.307699999999999974e-01 8.970319999999999183e+00 2.122959999999999958e+00 9.046999999999999487e-02 7.448629999999999640e+00
2.186090000000000089e+00 2.089999999999999844e-03 3.019540000000000113e+00 4.689999999999999725e-03 1.266259999999999941e+00 1.133670000000000044e+01 2.140760000000000218e+00 1.354060000000000041e+00 5.281509999999999927e+00 4.297170000000000378e+00 4.707999999999999685e-02 4.542069999999999830e+00 1.755999999999999922e-02 2.585529999999999884e+00 2.495199999999999918e-01 4.249259999999999593e+00 2.576869999999999994e+00 9.092829999999999302e+00 7.063999999999999446e-02 1.334889999999999910e+00 2.375640000000000196e+00 2.109539999999999971e+00 1.898999999999999994e-02 7.549310000000000187e+00 6.119999999999999572e-03 1.311870000000000092e+00 6.779390000000000249e+00 2.187230000000000008e+00 1.283279999999999976e+00 7.306899999999999507e-01 2.162920000000000176e+00 1.296370000000000022e+00 9.722550000000000026e+00 2.094199999999999839e+00 2.570759999999999934e+00 1.191569999999999929e+01
1.933470000000000022e+00 1.286370000000000013e+00 9.201200000000000490e-01 2.609609999999999985e+00 2.638259999999999827e+00 2.997090000000000032e+00 4.087439999999999962e+00 2.647330000000000183e+00 5.140909999999999869e+00 2.718560000000000088e+00 2.500000000000000139e-02 7.134710000000000107e+00 4.134330000000000283e+00 2.597929999999999851e+00 9.587499999999999911e-01 4.103399999999999825e-01 1.336740000000000039e+00 3.054660000000000153e+00 5.241599999999999593e-01 1.326279999999999903e+00 7.273939999999999628e+00 7.498000000000000498e-02 2.249999999999999917e-02 9.390769999999999840e+00 1.774010000000000087e+00 3.509999999999999926e-02 1.132929999999999993e+01 1.875099999999999989e+00 1.330920000000000103e+00 5.096560000000000201e+00 3.929450000000000109e+00 1.361550000000000038e+00 1.148029999999999973e+01 2.265950000000000131e+00 1.346899999999999986e+00 9.241759999999999309e+00
2.122390000000000221e+00 4.630000000000000088e-02 3.069710000000000161e+00 5.895999999999999852e-02 1.205270000000000064e+00 1.121490000000000009e+01 2.151749999999999829e+00 1.308559999999999945e+00 5.209990000000000343e+00 4.252749999999999808e+00 2.599870000000000125e+00 4.678849999999999731e+00 4.274169999999999803e+00 1.143900000000000056e-01 3.121200000000000085e-01 4.289119999999999600e+00 2.550279999999999880e+00 8.984019999999999229e+00 4.279930000000000234e+00 1.349809999999999954e+00 2.440020000000000078e+00 2.156499999999999861e+00 2.600880000000000081e+00 7.411660000000000359e+00 7.330000000000000404e-02 1.299180000000000001e+00 6.841700000000000337e+00 2.147829999999999906e+00 1.371170000000000000e+00 9.036999999999999478e-01 2.184450000000000003e+00 1.252280000000000060e+00 9.713390000000000413e+00 2.144509999999999916e+00 2.557640000000000136e+00 1.181530000000000058e+01
1.931869999999999976e+00 3.731999999999999901e-02 1.159329999999999927e+01 2.147629999999999928e+00 1.344850000000000101e+00 9.467190000000000438e+00 4.257579999999999920e+00 2.432949999999999946e+00 4.729460000000000441e+00 1.570000000000000007e-01 1.551500000000000101e-01 5.217600000000000016e-01 1.540400000000000102e-01 1.365990000000000038e+00 2.624289999999999790e+00 2.310740000000000016e+00 1.351169999999999982e+00 8.836699999999999555e-01 2.087650000000000006e+00 1.532999999999999988e-02 7.423309999999999853e+00 9.329999999999999752e-03 2.569170000000000176e+00 8.974890000000000256e+00 2.042390000000000150e+00 1.204269999999999952e+00 5.265189999999999593e+00 2.292899999999999938e+00 7.932000000000000162e-02 3.102189999999999781e+00 4.196310000000000429e+00 1.258070000000000022e+00 1.104269999999999996e+01 4.243459999999999788e+00 1.226849999999999996e+00 6.967419999999999725e+00
1.156400000000000067e-01 2.307650000000000201e+00 6.162699999999999845e-01 3.349699999999999900e-01 1.220050000000000079e+00 2.807269999999999932e+00 1.143450000000000077e+00 1.131199999999999983e-01 1.162979999999999947e+01 6.200099999999999500e-01 1.493900000000000006e+00 7.214000000000000412e+00 1.373199999999999976e-01 2.399540000000000006e+00 4.959469999999999601e+00 3.410039999999999960e+00 1.498780000000000001e+00 1.146330000000000027e+01 2.355090000000000128e+00 1.276899999999999924e+00 5.299890000000000434e+00 2.440360000000000085e+00 1.391229999999999967e+00 7.713499999999999801e-01 4.176940000000000097e+00 1.362800000000000122e-01 9.405430000000000845e+00 1.936569999999999903e+00 1.338249999999999940e+00 9.473110000000000142e+00 2.611580000000000013e+00 1.016000000000000063e-02 3.056480000000000086e+00 2.666290000000000049e+00 1.102800000000000030e-01 7.322379999999999889e+00
2.124750000000000139e+00 1.046040000000000081e+00 5.181729999999999947e+00 1.163399999999999990e-01 1.284850000000000048e+00 1.147560000000000002e+01 2.026999999999999982e-02 2.812000000000000055e-01 1.671229999999999905e+01 4.084139999999999660e+00 2.533100000000000129e+00 8.975759999999999295e+00 6.796000000000000651e-02 1.376409999999999911e+00 2.098040000000000127e+00 4.158019999999999605e+00 9.974100000000000188e-01 6.742880000000000429e+00 2.263529999999999820e+00 1.858999999999999889e-02 1.185829999999999984e+01 2.123510000000000009e+00 1.368300000000000072e-01 2.648369999999999891e+00 2.047919999999999963e+00 1.175710000000000033e+00 9.756080000000000751e+00 2.093599999999999905e+00 1.561129999999999907e+00 5.146899999999999809e-01 1.994969999999999910e+00 2.474019999999999886e+00 7.582099999999999618e+00 9.090000000000000857e-03 2.455929999999999946e+00 4.470340000000000202e+00
2.088360000000000216e+00 1.362419999999999964e+00 5.828999999999999737e-01 4.105319999999999858e+00 1.195279999999999898e+00 6.670390000000000263e+00 2.020290000000000141e+00 2.517609999999999904e+00 7.449290000000000411e+00 2.061640000000000139e+00 1.310370000000000035e+00 9.624959999999999738e+00 8.008999999999999453e-02 1.253160000000000052e+00 1.121380000000000088e+01 2.218309999999999782e+00 2.528319999999999901e+00 1.179289999999999949e+01 4.187319999999999709e+00 2.429370000000000029e+00 4.448970000000000091e+00 2.236139999999999795e+00 8.927000000000000213e-02 2.945770000000000000e+00 2.058850000000000069e+00 1.242650000000000032e+00 5.234289999999999665e+00 4.200590000000000046e+00 8.724999999999999423e-02 2.960000000000000131e-02 4.142839999999999634e+00 2.632999999999999924e-02 8.951800000000000423e+00 1.449999999999999900e-01 1.299180000000000001e+00 2.227279999999999927e+00
1.638290000000000024e+00 1.106100000000000000e-01 7.093020000000000103e+00 2.737709999999999866e+00 1.917799999999999949e+00 9.443329999999999558e+00 5.750199999999999756e-01 3.376299999999999857e-01 9.191489999999999938e+00 2.435999999999999971e-02 1.547449999999999992e+00 1.124080000000000013e+01 7.982099999999999751e-01 1.692949999999999955e+00 5.147569999999999979e+00 2.067600000000000104e+00 1.263299999999999979e-01 1.184159999999999968e+01 4.266180000000000305e+00 3.749000000000000249e-02 7.175700000000000411e-01 1.556340000000000057e+00 1.150299999999999934e-01 3.138090000000000046e+00 3.781080000000000219e+00 1.536610000000000031e+00 7.271180000000000199e+00 3.745019999999999794e+00 1.556359999999999966e+00 2.984770000000000145e+00 3.046139999999999848e+00 2.294799999999999895e-01 5.122779999999999667e+00 2.101449999999999818e+00 1.429669999999999996e+00 8.266499999999999959e-01
2.456840000000000135e+00 2.569770000000000110e+00 1.192650000000000077e+01 2.192829999999999835e+00 1.468059999999999921e+00 9.841229999999999478e+00 4.269219999999999793e+00 2.484020000000000117e+00 4.518790000000000084e+00 4.055460000000000065e+00 2.560259999999999980e+00 1.856208000000000169e+01 4.241360000000000241e+00 1.158379999999999965e+00 2.250960000000000072e+00 2.001619999999999955e+00 1.380200000000000093e+00 6.949899999999999967e-01 2.104449999999999932e+00 3.785999999999999782e-02 7.499939999999999607e+00 4.283330000000000304e+00 8.160000000000000586e-02 9.178440000000000154e+00 2.054860000000000131e+00 1.373199999999999976e+00 5.324189999999999756e+00 2.182529999999999859e+00 2.521119999999999806e+00 3.083289999999999864e+00 2.847700000000000231e-01 1.069499999999999895e+00 1.152059999999999995e+01 8.370000000000000703e-03 1.551670000000000105e+00 6.805469999999999686e+00
1.948690000000000033e+00 1.444679999999999964e+00 4.617999999999999883e-01 3.924879999999999924e+00 1.186770000000000103e+00 7.024029999999999774e+00 2.828600000000000003e-01 2.342330000000000023e+00 9.219979999999999620e+00 3.524989999999999846e+00 1.524080000000000101e+00 1.141690000000000005e+01 2.334550000000000125e+00 9.163000000000000034e-01 9.421099999999999142e+00 4.600199999999999845e-01 1.427140000000000075e+00 2.851240000000000219e+00 2.613059999999999938e+00 1.508599999999999941e-01 2.732860000000000067e+00 1.508610000000000007e+00 1.641400000000000081e-01 1.154749999999999943e+01 5.729999999999999538e-01 9.882000000000000506e-02 5.091210000000000235e+00 4.155789999999999651e+00 1.856500000000000095e-01 7.859199999999999520e-01 1.807770000000000099e+00 2.260609999999999786e+00 7.211330000000000240e+00 2.696680000000000188e+00 1.339069999999999983e+00 4.831520000000000259e+00
2.061249999999999805e+00 2.478899999999999992e-01 7.280969999999999942e+00 1.949740000000000029e+00 1.481000000000000025e-02 2.815990000000000215e+00 2.067140000000000200e+00 1.407280000000000086e+00 5.046439999999999593e+00 4.084649999999999892e+00 3.628500000000000059e-01 4.303049999999999820e+00 2.042180000000000106e+00 9.272299999999999986e-01 3.556500000000000217e-01 2.043039999999999967e+00 1.121499999999999941e+00 9.705310000000000770e+00 2.131679999999999797e+00 2.283999999999999808e+00 1.191460000000000008e+01 4.071839999999999904e+00 1.719929999999999959e+00 6.455189999999999984e+00 3.669000000000000039e-02 2.213970000000000216e+00 1.876109999999999900e+01 4.049179999999999779e+00 1.365799999999999903e+00 1.890370000000000106e+00 7.058999999999999997e-02 2.371100000000000207e+00 8.918200000000000571e+00 2.099600000000000077e-01 9.980200000000000182e-01 1.137909999999999933e+01
2.048290000000000166e+00 3.993000000000000022e-02 7.395599999999999952e+00 4.346180000000000376e+00 2.614479999999999915e+00 9.091730000000000089e+00 3.497000000000000108e-02 1.559999999999999998e-01 8.097299999999999498e-01 2.313550000000000217e+00 2.525250000000000217e+00 1.161100000000000065e+01 1.223700000000000065e-01 1.325250000000000039e+00 2.796800000000000175e+00 2.062720000000000109e+00 1.380239999999999911e+00 5.482910000000000394e+00 2.037409999999999943e+00 1.410579999999999945e+00 9.487849999999999895e+00 2.330290000000000195e+00 1.193000000000000033e-01 3.377679999999999794e+00 2.151229999999999976e+00 1.310040000000000093e+00 9.908000000000000140e-01 2.302800000000000125e-01 1.129070000000000018e+00 1.127299999999999969e+01 4.269479999999999720e+00 1.157080000000000108e+00 6.832410000000000316e+00 1.490000000000000005e-03 1.289099999999999968e-01 4.869309999999999583e+00
1.399440000000000017e+00 2.459459999999999980e+00 7.332770000000000010e+00 4.163310000000000066e+00 3.998999999999999777e-02 5.092329999999999579e+00 3.561999999999999889e-02 1.230860000000000065e+00 3.104290000000000216e+00 4.183980000000000032e+00 2.581010000000000026e+00 9.249670000000000059e+00 2.605319999999999858e+00 1.355580000000000007e+00 8.947599999999999998e-01 2.356689999999999952e+00 2.562129999999999797e+00 2.890880000000000116e+00 3.026800000000000046e-01 2.242300000000000126e-01 8.827099999999999946e-01 2.084540000000000060e+00 1.313730000000000064e+00 5.014610000000000234e+00 3.633999999999999897e+00 1.343099999999999961e+00 7.229040000000000354e+00 6.159400000000000430e-01 1.441440000000000055e+00 1.128359999999999985e+01 2.777280000000000193e+00 1.695399999999999963e-01 1.161860000000000070e+01 2.178609999999999935e+00 1.233810000000000073e+00 9.425580000000000069e+00
2.098380000000000134e+00 1.371650000000000036e+00 5.154709999999999681e+00 1.564800000000000080e-01 1.195079999999999920e+00 1.141980000000000040e+01 4.113400000000000389e+00 7.570000000000000340e-02 1.675639999999999930e+01 7.896999999999999853e-02 2.307999999999999982e-02 9.021259999999999835e+00 4.100459999999999994e+00 1.331429999999999891e+00 2.030980000000000008e+00 4.007000000000000145e-02 1.194180000000000019e+00 6.670770000000000088e+00 2.212590000000000057e+00 2.484840000000000160e+00 1.194170000000000087e+01 2.037650000000000183e+00 4.596999999999999698e-02 2.797789999999999999e+00 2.152439999999999909e+00 1.199459999999999971e+00 9.846890000000000143e+00 2.028049999999999908e+00 1.327970000000000095e+00 5.169300000000000006e-01 2.111330000000000151e+00 2.469100000000000072e+00 7.531109999999999971e+00 4.194619999999999571e+00 6.629000000000000170e-02 4.327939999999999898e+00
1.971000000000000085e+00 2.554240000000000066e+00 2.933330000000000215e+00 3.587699999999999778e-01 1.260739999999999972e+00 1.145240000000000080e+01 1.974679999999999991e+00 1.330810000000000048e+00 5.230739999999999945e+00 4.225469999999999615e+00 2.601850000000000218e+00 4.602500000000000036e+00 3.829909999999999926e+00 4.910000000000000302e-03 1.237599999999999950e-01 2.751700000000000257e-01 2.745999999999999830e-02 9.191470000000000695e+00 4.018089999999999939e+00 1.200439999999999952e+00 2.369219999999999882e+00 2.269779999999999909e+00 4.853999999999999981e-02 7.451590000000000380e+00 8.616000000000000048e-02 1.245509999999999895e+00 6.758289999999999687e+00 1.754839999999999955e+00 1.402560000000000029e+00 6.797699999999999854e-01 2.458029999999999937e+00 1.381790000000000074e+00 9.802189999999999515e+00 2.608989999999999920e+00 2.589199999999999946e+00 1.200009999999999977e+01
2.068169999999999842e+00 2.580000000000000002e-02 3.106770000000000032e+00 2.161070000000000046e+00 2.840000000000000163e-02 7.578800000000000203e+00 2.207100000000000062e+00 1.375110000000000054e+00 9.840740000000000265e+00 1.145000000000000011e-02 2.606689999999999952e+00 2.628599999999999826e-01 4.209369999999999834e+00 1.320570000000000022e+00 2.422400000000000109e+00 4.268460000000000143e+00 5.049999999999999802e-03 4.738520000000000287e+00 4.377869999999999706e+00 1.418909999999999894e+00 6.934759999999999813e+00 2.256599999999999995e-01 1.186879999999999935e+00 1.148610000000000042e+01 2.135790000000000077e+00 1.356789999999999941e+00 5.392159999999999620e+00 2.415779999999999816e+00 2.609849999999999781e+00 1.200399999999999956e+01 8.551000000000000267e-02 3.357000000000000262e-02 9.312630000000000408e+00 2.171180000000000110e+00 1.328519999999999923e+00 9.391100000000000003e-01
2.238170000000000215e+00 1.340589999999999948e+00 4.952999999999999764e-02 2.293699999999999906e-01 8.196000000000000507e-02 1.605320000000000036e+01 1.887559999999999905e+00 5.741999999999999882e-02 7.347780000000000200e+00 3.918829999999999814e+00 1.352100000000000080e+00 1.131240000000000023e+01 3.941009999999999902e+00 1.272540000000000004e+00 6.462279999999999802e+00 2.035979999999999901e+00 1.144230000000000080e+00 4.926940000000000097e+00 2.154669999999999863e+00 2.348339999999999872e+00 2.494380000000000042e+00 1.922800000000000065e+00 2.490000000000000026e-03 1.213180000000000014e+01 3.907480000000000064e+00 2.436179999999999790e+00 8.873139999999999361e+00 7.150000000000000105e-03 2.374740000000000073e+00 4.075330000000000119e+00 1.873620000000000063e+00 1.224979999999999958e+00 9.794990000000000308e+00 1.948199999999999932e-01 1.092019999999999991e+00 1.613830000000000098e+00
1.845620000000000038e+00 6.761000000000000343e-01 5.206399999999999917e-01 4.185850000000000293e+00 2.432119999999999838e+00 6.767249999999999766e+00 2.111229999999999940e+00 1.123850000000000016e+00 7.481770000000000032e+00 2.253010000000000179e+00 2.080779999999999852e+00 9.841910000000000380e+00 1.619500000000000106e-01 2.032599999999999962e+00 1.125200000000000067e+01 2.249400000000000066e+00 7.618800000000000017e-01 1.204219999999999935e+01 4.211850000000000094e+00 1.359129999999999949e+00 4.449130000000000251e+00 1.991290000000000004e+00 1.535549999999999971e+00 2.877369999999999983e+00 2.134549999999999947e+00 2.158100000000000018e-01 5.149350000000000094e+00 4.069600000000000328e+00 1.980399999999999938e+00 1.709168000000000021e+01 1.333300000000000041e-01 8.940599999999999659e-01 8.982649999999999579e+00 4.197070000000000078e+00 2.489399999999999946e-01 2.060340000000000060e+00
8.418299999999999672e-01 2.018209999999999837e+00 1.163460000000000072e+01 1.613930000000000087e+00 1.096289999999999987e+00 9.309100000000000819e+00 3.250799999999999801e-01 4.083499999999999908e-01 4.904049999999999798e+00 5.811600000000000099e-01 1.467700000000000116e-01 5.676499999999999879e-01 4.929700000000000193e-01 1.504590000000000094e+00 2.582619999999999916e+00 2.633100000000000218e+00 1.529689999999999994e+00 6.633000000000000007e-01 2.873610000000000220e+00 1.637299999999999867e-01 7.034250000000000114e+00 3.726949999999999985e+00 2.309790000000000010e+00 9.385429999999999495e+00 2.464820000000000011e+00 1.507779999999999898e+00 4.966770000000000351e+00 2.409769999999999968e+00 1.358199999999999963e-01 2.865250000000000075e+00 2.948599999999999888e+00 7.989699999999999580e-01 1.155649999999999977e+01 6.143600000000000172e-01 1.420460000000000056e+00 7.125869999999999926e+00
2.428780000000000161e+00 1.209289999999999976e+00 8.624899999999999789e-01 1.608600000000000030e-01 2.545539999999999914e+00 4.998140000000000249e+00 4.107310000000000016e+00 2.278999999999999915e-01 9.483119999999999550e+00 1.460259999999999891e+00 2.647060000000000191e+00 2.953619999999999912e+00 1.874940000000000051e+00 1.450800000000000090e+00 9.302630000000000621e+00 2.876860000000000195e+00 2.520399999999999974e+00 7.214249999999999829e+00 3.767149999999999999e+00 1.023449999999999971e+00 3.021640000000000104e+00 1.916390000000000038e+00 2.952400000000000024e-01 1.150999999999999979e+01 3.660100000000000020e-01 2.559309999999999974e+00 8.575199999999999489e-01 7.651200000000000223e-01 1.307469999999999910e+00 7.035280000000000200e+00 4.302489999999999704e+00 1.502299999999999969e+00 1.176500000000000057e+01 2.311240000000000183e+00 1.324829999999999952e+00 5.015139999999999709e+00