4.304738000000000397e+00 0.000000000000000000e+00 0.000000000000000000e+00 0.000000000000000000e+00 2.607600000000000140e+00 0.000000000000000000e+00 0.000000000000000000e+00 0.000000000000000000e+00 1.661118199999999945e+01
4.220330999999999833e+00 0.000000000000000000e+00 0.000000000000000000e+00 0.000000000000000000e+00 2.556470000000000020e+00 0.000000000000000000e+00 0.000000000000000000e+00 0.000000000000000000e+00 2.034429599999999994e+01
4.304738000000000397e+00 0.000000000000000000e+00 0.000000000000000000e+00 0.000000000000000000e+00 2.607600000000000140e+00 0.000000000000000000e+00 0.000000000000000000e+00 0.000000000000000000e+00 2.061118199999999945e+01
4.473550999999999611e+00 0.000000000000000000e+00 0.000000000000000000e+00 0.000000000000000000e+00 2.709858999999999796e+00 0.000000000000000000e+00 0.000000000000000000e+00 0.000000000000000000e+00 2.314495399999999847e+01
4.051517999999999731e+00 0.000000000000000000e+00 0.000000000000000000e+00 0.000000000000000000e+00 2.454212000000000060e+00 0.000000000000000000e+00 0.000000000000000000e+00 0.000000000000000000e+00 1.531052399999999913e+01
4.389145000000000074e+00 0.000000000000000000e+00 0.000000000000000000e+00 0.000000000000000000e+00 2.658729000000000120e+00 0.000000000000000000e+00 0.000000000000000000e+00 0.000000000000000000e+00 1.987806799999999896e+01
4.473550999999999611e+00 0.000000000000000000e+00 0.000000000000000000e+00 0.000000000000000000e+00 2.709858999999999796e+00 0.000000000000000000e+00 0.000000000000000000e+00 0.000000000000000000e+00 1.914495399999999847e+01
4.473550999999999611e+00 0.000000000000000000e+00 0.000000000000000000e+00 0.000000000000000000e+00 2.709858999999999796e+00 0.000000000000000000e+00 0.000000000000000000e+00 0.000000000000000000e+00 1.914495399999999847e+01
4.051517999999999731e+00 0.000000000000000000e+00 0.000000000000000000e+00 0.000000000000000000e+00 2.454212000000000060e+00 0.000000000000000000e+00 0.000000000000000000e+00 0.000000000000000000e+00 2.081052400000000091e+01
4.304738000000000397e+00 0.000000000000000000e+00 0.000000000000000000e+00 0.000000000000000000e+00 2.607600000000000140e+00 0.000000000000000000e+00 0.000000000000000000e+00 0.000000000000000000e+00 2.261118199999999945e+01
4.051517999999999731e+00 0.000000000000000000e+00 0.000000000000000000e+00 0.000000000000000000e+00 2.454212000000000060e+00 0.000000000000000000e+00 0.000000000000000000e+00 0.000000000000000000e+00 1.481052399999999913e+01
4.051517999999999731e+00 0.000000000000000000e+00 0.000000000000000000e+00 0.000000000000000000e+00 2.454212000000000060e+00 0.000000000000000000e+00 0.000000000000000000e+00 0.000000000000000000e+00 1.481052399999999913e+01
4.473550999999999611e+00 0.000000000000000000e+00 0.000000000000000000e+00 0.000000000000000000e+00 2.709858999999999796e+00 0.000000000000000000e+00 0.000000000000000000e+00 0.000000000000000000e+00 2.214495399999999847e+01
