3.312050000000000161e+00 1.410009999999999986e+00 9.072329999999999117e+00 1.848859999999999948e+00 1.346799999999999942e-01 1.354039999999999999e+01 2.137659999999999894e+00 1.869529999999999914e+00 2.032020000000000159e+00 1.423019999999999952e+00 3.580400000000000249e-01 7.986270000000000202e+00 3.804250000000000131e+00 9.501199999999999646e-01 2.523299999999999987e-01 2.292870000000000186e+00 7.277000000000000135e-02 1.105450000000000088e+01 8.444899999999999629e-01 3.166000000000000064e-02 9.935999999999999943e+00 3.685859999999999914e+00 1.718059999999999921e+00 6.631009999999999849e+00 1.561700000000000033e-01 5.646700000000000053e-01 2.730640000000000178e+00 4.077600000000000113e-01 1.558559999999999945e+00 1.219209999999999994e+01 1.875129999999999963e+00 1.211130000000000040e+00 1.583869999999999933e+01 4.042799999999999727e+00 5.536100000000000465e-01 1.455150000000000077e+01
9.009399999999999631e-01 1.632519999999999971e+00 1.301030000000000086e+01 1.543420000000000014e+00 2.297309999999999963e+00 7.895050000000000345e+00 4.077020000000000088e+00 9.028899999999999704e-01 6.608859999999999957e+00 3.933959999999999901e+00 1.942339999999999955e+00 4.176129999999999676e+00 1.652619999999999978e+00 8.380400000000000071e-01 5.078780000000000072e+00 4.122600000000000153e-01 2.011070000000000135e+00 1.164360000000000062e+00 2.645010000000000083e+00 2.499150000000000205e+00 4.164999999999999813e-01 3.113049999999999873e+00 1.087369999999999948e+00 1.181910000000000061e+01 9.318999999999999506e-01 2.374179999999999957e+00 1.039690000000000047e+01 6.106300000000000061e-01 1.654390000000000027e+00 1.960849999999999937e+01 1.936940000000000106e+00 1.876039999999999930e+00 2.728590000000000071e+00 3.566679999999999851e+00 1.338859999999999939e+00 8.613160000000000593e+00
4.256059999999999732e+00 2.017959999999999976e+00 7.804289999999999949e+00 1.058440000000000047e+00 1.697789999999999910e+00 1.196909999999999918e+01 4.223580000000000112e+00 1.869769999999999932e+00 1.426009999999999955e+01 4.940700000000000092e-01 9.924399999999999888e-01 9.960300000000000153e+00 2.717929999999999957e+00 2.443080000000000140e+00 3.215770000000000017e+00 2.908599999999999852e+00 2.058640000000000025e+00 1.356479999999999908e+00 2.314410000000000078e+00 2.555190000000000072e+00 1.851320000000000121e+01 2.326039999999999885e+00 1.539069999999999938e+00 8.176650000000000418e+00 3.173189999999999955e+00 4.904600000000000071e-01 1.198210000000000086e+01 6.918900000000000050e-01 8.685500000000000442e-01 2.042310000000000070e+00 9.550800000000000400e-01 1.105490000000000084e+00 2.029710000000000036e+01 7.116200000000000303e-01 6.172100000000000364e-01 4.240359999999999907e+00
2.193220000000000169e+00 2.030479999999999841e+00 2.762059999999999960e+00 7.252100000000000213e-01 1.881529999999999925e+00 9.493840000000000501e+00 2.181270000000000042e+00 9.088000000000000522e-01 1.176750000000000007e+01 2.478599999999999970e-01 7.911500000000000199e-01 7.768369999999999997e+00 3.849110000000000031e+00 2.181350000000000122e+00 2.604799999999999893e-01 2.656979999999999897e+00 2.865800000000000014e-01 9.779370000000000118e+00 4.440649999999999764e+00 8.961400000000000476e-01 3.106149999999999967e+00 4.327829999999999622e+00 2.821699999999999764e-01 5.636580000000000368e+00 2.416199999999999903e+00 2.081240000000000201e+00 7.401060000000000194e+00 1.456509999999999971e+00 1.034429999999999961e+00 7.846600000000000241e-01 4.042299999999999782e-01 2.167110000000000092e+00 1.141970000000000063e+01 1.944809999999999928e+00 1.720720000000000027e+00 5.262540000000000440e+00
2.160620000000000207e+00 8.620900000000000230e-01 1.012439999999999962e+01 3.748200000000000198e+00 1.544030000000000014e+00 1.575590000000000046e+00 1.784920000000000062e+00 5.408600000000000074e-01 2.547149999999999803e+00 2.312980000000000036e+00 1.321649999999999991e+00 4.981650000000000134e+00 1.953240000000000087e+00 1.845970000000000111e+00 1.265649999999999942e+01 3.911319999999999908e+00 7.485800000000000232e-01 1.174210000000000065e+01 7.464999999999999414e-02 1.992410000000000014e+00 8.937459999999999738e+00 2.111990000000000034e+00 2.012659999999999894e+00 1.498109999999999964e+01 3.987999999999999878e-02 1.258119999999999905e+00 6.372639999999999638e+00 2.759999999999999867e-03 1.117900000000000005e-01 1.348859999999999992e+01 4.015249999999999986e+00 2.328980000000000050e+00 4.114320000000000199e+00 2.195640000000000036e+00 1.604399999999999993e-01 7.424690000000000012e+00
2.080000000000000071e+00 1.332430000000000003e+00 5.667460000000000164e+00 1.550310000000000077e+00 7.381400000000000183e-01 1.210670000000000002e+01 2.116940000000000044e+00 2.075060000000000127e+00 1.002229999999999954e+01 3.175000000000000044e-01 2.008449999999999847e+00 4.530249999999999666e+00 3.022489999999999899e+00 5.165699999999999736e-01 7.968340000000000423e+00 3.676109999999999989e+00 2.200899999999999856e+00 1.211960000000000015e+01 1.158009999999999984e+00 1.086090000000000000e+00 1.971880000000000166e+01 3.335139999999999993e+00 2.453549999999999898e+00 3.211899999999999755e-01 4.139170000000000016e+00 9.827599999999999669e-01 9.816399999999999793e+00 3.260229999999999961e+00 1.175340000000000051e+00 2.298579999999999846e+00 1.014580000000000037e+00 2.043099999999999916e+00 1.539970000000000061e+00 6.669300000000000228e-01 2.001199999999999868e+00 7.787329999999999863e+00
2.818950000000000067e+00 1.046159999999999979e+00 6.463409999999999656e+00 1.339169999999999972e+00 1.190749999999999975e+00 8.980629999999999669e+00 2.398439999999999905e+00 1.060340000000000060e+00 1.867289999999999850e+01 1.449900000000000078e-01 4.977400000000000158e-01 1.260539999999999949e+01 4.559599999999999764e-01 9.574500000000000233e-01 3.001370000000000093e+00 3.613389999999999880e+00 2.150739999999999874e+00 4.339419999999999611e+00 1.573830000000000062e+00 2.364739999999999842e+00 1.349239999999999995e+01 3.104560000000000208e+00 2.263020000000000032e+00 1.514799999999999924e+00 4.173079999999999679e+00 2.502089999999999925e+00 7.998770000000000380e+00 8.531800000000000495e-01 1.995440000000000103e+00 7.199699999999999989e-01 7.036599999999999522e-01 9.768000000000000294e-02 5.925600000000000200e+00 1.191119999999999957e+00 1.355500000000000038e-01 1.087250000000000050e+01
4.456070000000000420e+00 1.672320000000000029e+00 7.138049999999999784e+00 1.661380000000000079e+00 1.377700000000000036e-01 7.691970000000000418e+00 4.067200000000000260e-01 2.599380000000000024e+00 8.828799999999999981e-01 1.708590000000000053e+00 2.646430000000000060e+00 1.147780000000000022e+01 3.314080000000000137e+00 2.608299999999999841e+00 3.441120000000000179e+00 1.343900000000000095e-01 3.382899999999999796e-01 5.234740000000000393e+00 3.838839999999999808e+00 1.222029999999999950e+00 1.131000000000000050e+01 1.203500000000000014e+00 1.491549999999999931e+00 2.748819999999999819e+00 3.753080000000000194e+00 5.403999999999999776e-02 9.267269999999999897e+00 2.733099999999999863e+00 3.638799999999999812e-01 1.092349999999999932e+00 2.162349999999999994e+00 1.266150000000000109e+00 5.433500000000000441e+00 1.471780000000000088e+00 1.861529999999999907e+00 9.723710000000000520e+00
3.611069999999999780e+00 1.600700000000000012e+00 4.135209999999999830e+00 1.430120000000000058e+00 6.684299999999999686e-01 2.955159999999999787e+00 1.184279999999999999e+00 4.233000000000000096e-01 1.406179999999999986e+01 1.154949999999999921e+00 1.508550000000000058e+00 1.647019999999999840e+01 3.418320000000000025e+00 2.405019999999999936e+00 1.691670000000000007e+00 1.353429999999999911e+00 8.006299999999999528e-01 5.859499999999999709e-01 1.554249999999999909e+00 8.839799999999999880e-01 5.227249999999999730e+00 3.578679999999999861e+00 1.511589999999999989e+00 2.010089999999999932e+01 3.107629999999999892e+00 1.779770000000000074e+00 1.341469999999999985e+01 3.573529999999999873e+00 8.599900000000000322e-01 1.794519999999999982e+01 3.030510000000000037e+00 1.504500000000000004e-01 1.515099999999999980e+01 1.366200000000000081e+00 2.135159999999999947e+00 1.901760000000000161e+01
1.622959999999999958e+00 3.780200000000000227e-01 5.567709999999999937e+00 1.680209999999999981e+00 2.087950000000000195e+00 3.446450000000000014e+00 2.816199999999999815e+00 2.565960000000000019e+00 1.207210000000000072e+01 4.679699999999999971e-01 1.109140000000000015e+00 2.870800000000000018e-01 1.602899999999999880e-01 2.604799999999999893e-01 9.096539999999999182e+00 2.824629999999999974e+00 9.711000000000000187e-02 2.244819999999999993e+01 3.071099999999999941e-01 1.365169999999999995e+00 1.139070000000000071e+01 4.123339999999999783e+00 1.999689999999999968e+00 6.538719999999999644e+00 3.796790000000000109e+00 4.947900000000000076e-01 4.413739999999999775e+00 1.968250000000000055e+00 2.067149999999999821e+00 7.645480000000000054e+00 3.642300000000000093e+00 8.862600000000000477e-01 2.100350000000000161e+00 2.420859999999999790e+00 2.336310000000000109e+00 1.019960000000000022e+01
3.442180000000000017e+00 1.882859999999999978e+00 7.852260000000000240e+00 3.931449999999999889e+00 1.070200000000000040e-01 1.663189999999999946e+00 2.097389999999999866e+00 1.758429999999999938e+00 3.535400000000000209e-01 6.356000000000000538e-02 2.192149999999999821e+00 1.402040000000000042e+01 3.190449999999999786e+00 1.845809999999999951e+00 1.100040000000000084e+01 3.944269999999999943e+00 4.595799999999999885e-01 5.823730000000000295e+00 1.410090000000000066e+00 7.399900000000000366e-01 3.331010000000000026e+00 9.101799999999999891e-01 4.789599999999999969e-01 9.737949999999999662e+00 2.362200000000000077e+00 7.538000000000000256e-01 1.309360000000000035e+01 1.792350000000000110e+00 1.819069999999999965e+00 5.335519999999999818e+00 3.347760000000000069e+00 1.961649999999999894e+00 3.790620000000000100e+00 1.871050000000000102e+00 7.282499999999999529e-01 7.133390000000000342e+00
3.673610000000000042e+00 6.385899999999999910e-01 9.278069999999999595e+00 6.271000000000000185e-02 1.417000000000000037e+00 1.212650000000000006e+00 1.820729999999999960e+00 6.359799999999999898e-01 2.420999999999999888e-02 3.709890000000000132e+00 1.608460000000000001e+00 1.366990000000000016e+01 3.823840000000000128e+00 5.175600000000000200e-01 1.145159999999999911e+01 2.966099999999999848e-01 1.351180000000000048e+00 6.607779999999999987e+00 2.412599999999999856e+00 2.288279999999999870e+00 2.391770000000000174e+00 1.772599999999999953e+00 2.161760000000000126e+00 1.033440000000000047e+01 1.837979999999999947e+00 2.083120000000000083e+00 1.217420000000000080e+01 2.314299999999999968e-01 8.817999999999999450e-02 3.623359999999999914e+00 2.155209999999999848e+00 1.624000000000000110e+00 5.023869999999999614e+00 2.514250000000000096e+00 3.134600000000000164e-01 7.343630000000000102e+00
3.706609999999999960e+00 4.342699999999999894e-01 4.386999999999999927e-02 2.906940000000000079e+00 1.193319999999999936e+00 7.330009999999999692e+00 3.794830000000000148e+00 2.358530000000000015e+00 1.007879999999999932e+01 3.489390000000000214e+00 7.731099999999999639e-01 1.216980000000000040e+01 1.269160000000000066e+00 2.190370000000000150e+00 2.654000000000000248e-01 5.709999999999999798e-03 8.365000000000000213e-01 2.695419999999999927e+00 3.631959999999999855e+00 1.736629999999999896e+00 4.868789999999999729e+00 2.219599999999999795e+00 7.697800000000000198e-01 2.155930000000000124e+00 1.506340000000000012e+00 3.868599999999999817e-01 4.977100000000000080e+00 7.857800000000000340e-01 1.152000000000000073e-02 7.572540000000000049e+00 1.417580000000000062e+00 7.049199999999999910e-01 1.066189999999999927e+01 2.109999999999999876e+00 2.156039999999999957e+00 1.262270000000000003e+01
