9.659485594950092846e+00 1.487264825302296201e+00 1.041579875750850803e+01 1.487264825302296201e+00 -8.322454371408010587e+00 2.350756859185961639e-02 1.041579875750850803e+01 2.350756859185961639e-02 9.959470985836379242e+00
2.621707700032466781e-01 -1.901203196370387705e+00 3.069085570854034994e+00 -1.901203196370387705e+00 -7.625620293893751622e+00 2.202014720572089246e+00 3.069085570854034994e+00 2.202014720572089246e+00 1.012582436516866480e+01
-5.436201942630303208e-01 1.249038215810986063e+00 -2.022132768873381004e+00 1.249038215810986063e+00 -1.179806160894777101e+01 2.775919019480273864e+00 -2.022132768873381004e+00 2.775919019480273864e+00 1.089128041878078612e+01
-4.888601913370416163e+00 6.665069370672725979e-01 1.625580844610198250e+00 6.665069370672725979e-01 -7.965625811199616102e+00 7.913058918753247184e+00 1.625580844610198250e+00 7.913058918753247184e+00 1.746191014728158919e+01
5.995477788768707406e+00 4.352886952585604541e-01 -2.975199961434305540e-01 4.352886952585604541e-01 7.592892889694243586e+00 -6.128557310416730353e+00 -2.975199961434305540e-01 -6.128557310416730353e+00 1.065447823719632403e+01
-2.063530847523697531e+00 -1.996882856667270500e+00 1.465837375767563344e+00 -1.996882856667270500e+00 -6.432717614908172621e+00 3.140935514692921871e+00 1.465837375767563344e+00 3.140935514692921871e+00 5.983182107054652477e+00
9.276919190081672539e+00 -6.930041398210771142e+00 1.008685169380741042e+00 -6.930041398210771142e+00 -7.425317309424704248e+00 -1.826710899614366612e+00 1.008685169380741042e+00 -1.826710899614366612e+00 8.122389356652162107e+00
4.021476013994646159e+00 2.849857261088937221e+00 5.191789594699960375e+00 2.849857261088937221e+00 -3.872490824606860116e+00 4.777545900708979332e+00 5.191789594699960375e+00 4.777545900708979332e+00 1.255245959562387270e+01
9.056987541757147042e+00 -4.025809391277574423e-01 -1.490303724775752237e+00 -4.025809391277574423e-01 9.318164686648781725e+00 3.491362562489930266e+00 -1.490303724775752237e+00 3.491362562489930266e+00 1.727387489861066072e+01
1.751782967624943010e+00 1.814829589231530926e+00 -2.177837962715282405e+00 1.814829589231530926e+00 -7.389756966315157882e+00 1.042938575504804177e+00 -2.177837962715282405e+00 1.042938575504804177e+00 1.634169921158393635e+01
1.953716363512317855e+01 1.753833180998668473e+00 3.555012159022024054e+00 1.753833180998668473e+00 1.866896525244327876e+01 -2.760707596186927071e-01 3.555012159022024054e+00 -2.760707596186927071e-01 1.781436212668033292e+01
1.018673730485979334e+01 -1.370114384797889440e-01 -1.608583334855663294e+00 -1.370114384797889440e-01 6.667698208508225477e+00 -9.171471901882012334e-01 -1.608583334855663294e+00 -9.171471901882012334e-01 2.268933300934229180e+01
5.117250014462633168e+00 5.230637747758126038e-02 -2.835159141816119721e+00 5.230637747758126038e-02 -5.441113235488173494e+00 4.261670357185346480e-01 -2.835159141816119721e+00 4.261670357185346480e-01 -9.926135862634890117e+00
