2.828990000000000116e+00 3.739349999999999952e+00 5.384540000000000326e+00 2.565729999999999844e+00 3.697389999999999954e+00 3.877700000000000036e-01 1.368549999999999933e+00 1.791500000000000092e+00 9.028529999999999944e+00 5.242969999999999686e+00 3.691180000000000128e+00 2.948809999999999931e+00 2.478270000000000195e+00 3.753029999999999866e+00 2.892729999999999801e+00 5.301759999999999806e+00 3.769569999999999865e+00 4.112799999999999789e-01 4.300110000000000099e+00 1.977139999999999898e+00 6.661150000000000126e+00 2.822839999999999794e+00 3.618069999999999897e+00 7.928490000000000038e+00 1.514000000000000068e-02 -2.120000000000000009e-02 8.000949999999999562e+00 3.971519999999999939e+00 1.768340000000000023e+00 9.351919999999999789e+00 5.462000000000000188e-02 5.473999999999999699e-02 5.346070000000000100e+00 1.478380000000000027e+00 1.777560000000000029e+00 6.679929999999999701e+00 1.311830000000000052e+00 1.871709999999999985e+00 4.180550000000000210e+00 4.048490000000000144e+00 1.925040000000000084e+00 4.085609999999999964e+00 3.803799999999999848e+00 1.854510000000000103e+00 1.519600000000000062e+00 1.162770000000000081e+00 1.897010000000000085e+00 1.520790000000000086e+00
3.736740000000000173e+00 2.054060000000000219e+00 8.983010000000000161e+00 3.752450000000000063e+00 1.773090000000000055e+00 1.156530000000000058e+00 2.562609999999999832e+00 3.751609999999999889e+00 5.218960000000000043e+00 1.344270000000000076e+00 1.682190000000000074e+00 9.405749999999999389e+00 4.504999999999999977e-02 3.488230000000000164e+00 5.184960000000000235e+00 2.522409999999999819e+00 6.153999999999999748e-02 2.665080000000000116e+00 1.684599999999999986e-01 1.825199999999999878e-01 2.570089999999999986e+00 2.372409999999999908e+00 3.783049999999999802e+00 7.760959999999999859e+00 3.787640000000000118e+00 2.009650000000000158e+00 3.656670000000000087e+00 1.216380000000000017e+00 2.117259999999999920e+00 1.186669999999999892e+00 4.768779999999999575e+00 3.902519999999999989e+00 1.744709999999999894e+01 1.256510000000000016e+00 1.935049999999999937e+00 3.846610000000000085e+00 1.040859999999999896e+00 1.883170000000000011e+00 6.595229999999999926e+00 2.486639999999999961e+00 3.678300000000000125e+00 4.157999999999999891e-02 4.693060000000000009e+00 3.764429999999999943e+00 7.734029999999999738e+00 3.553620000000000001e+00 1.908770000000000078e+00 6.410980000000000345e+00
2.461040000000000116e+00 -6.470000000000000057e-03 5.518329999999999735e+00 2.630510000000000126e+00 4.843999999999999695e-02 1.198899999999999966e-01 1.535179999999999989e+00 2.100449999999999928e+00 9.168160000000000309e+00 5.261409999999999698e+00 3.629719999999999835e+00 2.813849999999999962e+00 2.626689999999999969e+00 3.745810000000000084e+00 2.859070000000000000e+00 5.425779999999999603e+00 3.690830000000000055e+00 3.038100000000000245e-01 4.033310000000000173e+00 1.837720000000000020e+00 6.850780000000000314e+00 2.827409999999999979e+00 -9.950000000000000511e-03 8.089109999999999800e+00 -4.721999999999999809e-02 2.390000000000000110e-02 8.093059999999999476e+00 4.467620000000000147e+00 1.795530000000000070e+00 9.251360000000000028e+00 5.250409999999999577e+00 3.650069999999999926e+00 5.373890000000000278e+00 1.407629999999999937e+00 2.012950000000000017e+00 6.717430000000000234e+00 1.168190000000000062e+00 1.767630000000000035e+00 4.080199999999999605e+00 3.782880000000000020e+00 1.801679999999999948e+00 4.050259999999999749e+00 3.955729999999999968e+00 1.766089999999999938e+00 1.415159999999999973e+00 1.318889999999999896e+00 1.727260000000000018e+00 1.624400000000000066e+00
4.045989999999999753e+00 1.693959999999999910e+00 6.948389999999999844e+00 1.610289999999999999e+00 2.043369999999999909e+00 9.447800000000000864e+00 1.286720000000000086e+00 1.643440000000000012e+00 7.086170000000000080e+00 1.347890000000000033e+00 2.041949999999999932e+00 1.602929999999999966e+00 1.490820000000000034e+00 1.997300000000000075e+00 4.065940000000000332e+00 2.802929999999999922e+00 -2.458000000000000115e-02 8.358969999999999345e+00 4.172869999999999635e+00 1.789420000000000011e+00 9.188010000000000232e+00 2.648460000000000036e+00 3.902270000000000127e+00 2.764800000000000146e+00 4.346390000000000420e+00 1.946139999999999981e+00 4.027350000000000207e+00 1.754999999999999963e-02 3.687230000000000008e+00 8.294790000000000774e+00 5.351829999999999643e+00 3.709719999999999906e+00 2.864099999999999979e-01 2.621750000000000025e+00 3.762199999999999989e+00 5.331620000000000026e+00 4.368759999999999977e+00 2.118149999999999977e+00 1.615620000000000056e+00 2.527429999999999843e+00 1.410200000000000065e-01 5.938299999999999690e-01 7.369000000000000550e-02 1.349799999999999889e-01 5.324609999999999843e+00 5.485829999999999984e+00 1.451600000000000112e-01 2.771049999999999791e+00
4.063880000000000159e+00 1.733360000000000012e+00 6.996979999999999755e+00 1.549490000000000034e+00 2.002130000000000187e+00 9.598710000000000520e+00 1.299230000000000107e+00 1.691410000000000080e+00 7.065129999999999910e+00 1.362230000000000052e+00 2.017739999999999867e+00 1.557180000000000009e+00 1.476939999999999920e+00 2.000630000000000130e+00 4.073070000000000412e+00 2.802740000000000009e+00 -9.589999999999999566e-03 8.372790000000000177e+00 4.142330000000000290e+00 1.783300000000000107e+00 9.348390000000000200e+00 2.659100000000000019e+00 3.903570000000000206e+00 2.685680000000000067e+00 4.330020000000000202e+00 1.914020000000000055e+00 4.018410000000000259e+00 7.400000000000000328e-03 3.721159999999999801e+00 8.324780000000000513e+00 5.392109999999999737e+00 3.742360000000000131e+00 1.343199999999999950e-01 2.628130000000000077e+00 3.777569999999999872e+00 5.364639999999999631e+00 4.370160000000000267e+00 2.106840000000000046e+00 1.568880000000000052e+00 2.575180000000000025e+00 1.176800000000000068e-01 4.455899999999999861e-01 6.246999999999999775e-02 9.815999999999999726e-02 5.366579999999999906e+00 5.477780000000000094e+00 1.313999999999999890e-01 2.787160000000000082e+00
1.782380000000000075e+00 1.952790000000000026e+00 9.002380000000000493e+00 6.236099999999999977e-01 -9.841999999999999360e-02 7.583020000000000316e+00 4.926639999999999908e+00 3.823090000000000099e+00 3.166959999999999997e+00 2.096670000000000034e+00 1.883340000000000014e+00 6.524300000000000210e+00 1.450769999999999893e+00 3.660210000000000186e+00 4.473500000000000254e-01 2.855449999999999822e+00 1.855339999999999989e+00 1.483239999999999892e+00 4.266580000000000261e+00 3.852879999999999860e+00 6.788999999999999480e-01 1.311879999999999935e+00 -1.004899999999999960e-01 5.294599999999999973e+00 2.290290000000000159e+00 3.711289999999999978e+00 2.920690000000000008e+00 3.725550000000000139e+00 1.828840000000000021e+00 3.954870000000000108e+00 4.572160000000000224e+00 2.127839999999999954e+00 9.288149999999999906e+00 2.731999999999999984e-01 1.716329999999999911e+00 1.652320000000000011e+00 3.859420000000000073e+00 -8.551000000000000267e-02 5.496190000000000353e+00 1.089539999999999953e+00 1.764070000000000027e+00 3.940179999999999794e+00 3.221109999999999918e+00 1.243999999999999967e-02 7.949569999999999581e+00 4.431510000000000282e+00 1.855820000000000025e+00 6.719610000000000305e+00
5.464430000000000121e+00 3.863179999999999836e+00 8.189470000000000027e+00 1.512140000000000040e+00 1.924029999999999907e+00 9.554420000000000357e+00 1.193899999999999961e-01 1.520000000000000084e-03 5.451349999999999696e+00 2.733950000000000102e+00 3.853320000000000078e+00 5.480269999999999975e+00 4.136320000000000441e+00 1.927929999999999922e+00 6.826679999999999637e+00 2.621210000000000040e+00 3.867319999999999869e+00 2.926000000000000129e-02 4.023360000000000269e+00 1.929529999999999967e+00 1.395159999999999956e+00 2.728819999999999801e+00 2.642999999999999863e-02 2.768130000000000202e+00 2.857489999999999863e+00 2.459999999999999947e-03 8.186820000000000874e+00 4.090029999999999610e+00 1.957019999999999982e+00 4.094490000000000407e+00 1.457039999999999891e+00 1.940129999999999910e+00 6.832770000000000010e+00 5.276959999999999873e+00 3.870620000000000172e+00 5.790000000000000008e-02 5.345089999999999897e+00 3.866530000000000022e+00 2.744009999999999838e+00 1.400090000000000057e+00 1.907399999999999984e+00 4.089640000000000164e+00 1.366870000000000029e+00 1.930339999999999945e+00 1.362630000000000008e+00 4.176449999999999996e+00 1.920579999999999954e+00 9.568640000000000256e+00
1.491039999999999921e+00 2.039250000000000007e+00 9.585190000000000765e+00 2.980770000000000142e+00 3.898740000000000094e+00 5.536509999999999820e+00 2.674399999999999888e+00 1.291799999999999893e-01 1.228500000000000009e-01 9.962999999999999634e-02 1.645000000000000073e-01 8.389999999999999888e-03 1.645000000000000073e-01 3.905959999999999877e+00 8.106820000000000803e+00 1.466939999999999911e+00 1.948830000000000062e+00 4.168160000000000309e+00 2.774989999999999846e+00 1.036299999999999999e-01 2.769379999999999953e+00 4.253639999999999866e+00 2.043579999999999952e+00 4.080140000000000100e+00 2.720270000000000188e+00 3.903690000000000104e+00 8.073109999999999786e+00 4.443249999999999922e+00 2.092639999999999834e+00 9.435480000000000089e+00 1.347979999999999956e+00 1.971810000000000063e+00 1.438010000000000010e+00 4.384100000000000108e+00 2.195370000000000044e+00 6.991780000000000328e+00 4.022409999999999819e+00 1.945829999999999949e+00 1.522070000000000034e+00 1.361010000000000053e+00 1.933929999999999927e+00 6.984460000000000335e+00 5.473609999999999864e+00 3.856959999999999944e+00 2.772740000000000204e+00 5.509649999999999714e+00 3.830099999999999838e+00 5.428440000000000154e+00
2.656039999999999957e+00 3.091999999999999957e-02 2.749890000000000168e+00 4.016630000000000145e+00 2.007760000000000211e+00 4.125829999999999664e+00 4.129999999999999991e-03 5.899999999999999863e-03 5.969999999999999613e-03 4.047209999999999752e+00 1.975530000000000008e+00 1.380649999999999933e+00 1.263630000000000031e+00 2.067649999999999988e+00 9.628790000000000404e+00 5.282460000000000377e+00 8.651000000000000356e-02 8.250899999999999679e+00 3.957790000000000141e+00 2.063239999999999963e+00 9.622840000000000060e+00 2.538279999999999870e+00 4.123219999999999885e+00 1.909799999999999898e+01 1.298740000000000006e+00 2.034310000000000063e+00 6.871220000000000105e+00 5.345839999999999925e+00 2.951000000000000151e-02 2.750859999999999861e+00 2.596150000000000180e+00 8.240000000000000102e-02 8.248799999999999244e+00 2.690669999999999895e+00 3.986880000000000202e+00 5.500689999999999635e+00 4.380000000000000213e-03 3.986409999999999787e+00 5.506050000000000111e+00 3.983309999999999906e+00 2.038790000000000102e+00 6.865949999999999775e+00 1.330480000000000107e+00 2.007390000000000008e+00 4.124159999999999826e+00 1.360789999999999944e+00 1.978820000000000023e+00 1.373480000000000034e+00
1.338710000000000067e+00 3.755749999999999922e+00 8.067819999999999325e+00 2.694319999999999826e+00 1.810489999999999933e+00 8.971809999999999619e+00 3.987039999999999917e+00 1.200500000000000039e-01 5.619419999999999860e+00 1.383199999999999985e+00 3.765249999999999986e+00 5.436950000000000394e+00 2.783450000000000202e+00 1.960930000000000062e+00 6.573590000000000266e+00 4.189219999999999722e+00 2.451800000000000090e-01 8.049100000000000144e-01 1.711600000000000066e-01 2.095000000000000195e+00 1.396200000000000108e+00 1.634079999999999977e+00 1.328300000000000036e-01 2.675409999999999844e+00 4.069819999999999993e+00 3.772069999999999812e+00 8.146910000000000096e+00 2.555079999999999796e+00 1.884870000000000045e+00 4.194960000000000022e+00 5.338250000000000384e+00 1.859560000000000102e+00 6.506999999999999673e+00 1.603189999999999893e+00 5.331000000000000322e-02 8.534999999999999531e-02 4.139719999999999622e+00 3.706910000000000149e+00 3.275830000000000020e+00 5.393500000000000405e+00 1.698499999999999899e+00 4.225489999999999746e+00 2.806569999999999787e+00 2.173480000000000079e+00 1.407359999999999944e+00 5.242259999999999920e+00 1.876970000000000027e+00 9.242580000000000240e+00
5.360079999999999956e+00 1.456899999999999862e-01 3.735170000000000101e+00 4.137349999999999639e+00 3.819500000000000117e+00 1.366230000000000055e+00 9.723300000000000276e-01 3.725820000000000132e+00 2.438400000000000012e-01 2.868539999999999868e+00 1.329599999999999949e-01 4.946519999999999584e+00 1.163010000000000099e+00 2.138510000000000133e+00 4.285510000000000375e+00 3.623590000000000089e+00 2.145989999999999842e+00 3.267370000000000108e+00 3.965440000000000076e+00 3.766840000000000188e+00 7.352140000000000342e+00 5.624500000000000055e-01 3.676419999999999799e+00 6.085569999999999702e+00 1.599460000000000104e+00 3.627279999999999838e+00 8.453900000000000858e+00 6.432000000000000217e-02 1.936830000000000052e+00 1.829579999999999984e+00 1.904360000000000053e+00 1.209000000000000005e-02 2.625230000000000175e+00 -1.642000000000000057e-02 1.691729999999999956e+00 7.783870000000000289e+00 3.294950000000000045e+00 1.682490000000000041e+00 8.874340000000000117e+00 4.515060000000000073e+00 1.785469999999999891e+00 5.563620000000000232e+00 2.097960000000000047e+00 1.874290000000000012e+00 6.836509999999999643e+00 2.261000000000000121e+00 1.932709999999999928e+00 1.070929999999999938e+00
2.724580000000000002e+00 3.947159999999999780e+00 2.728990000000000027e+00 3.987789999999999946e+00 2.030710000000000015e+00 4.083039999999999559e+00 5.425670000000000215e+00 3.873600000000000154e+00 3.642999999999999711e-02 3.975039999999999907e+00 1.908339999999999925e+00 1.412099999999999911e+00 1.206250000000000044e+00 2.085570000000000146e+00 9.591670000000000584e+00 -8.279000000000000248e-02 1.836800000000000099e-01 8.333819999999999339e+00 4.054949999999999832e+00 2.139639999999999986e+00 9.563660000000000494e+00 2.830150000000000166e+00 3.912970000000000059e+00 5.548000000000000154e-02 1.346870000000000012e+00 2.082409999999999872e+00 6.888560000000000016e+00 5.339850000000000207e+00 3.955169999999999852e+00 2.695949999999999847e+00 2.630619999999999958e+00 3.980049999999999866e+00 8.182169999999999277e+00 2.557990000000000208e+00 7.374999999999999611e-02 5.498719999999999608e+00 4.970000000000000112e-02 3.960210000000000008e+00 5.589039999999999786e+00 4.088470000000000049e+00 2.060430000000000206e+00 6.857619999999999827e+00 1.353110000000000035e+00 1.994250000000000078e+00 4.165770000000000195e+00 1.289600000000000080e+00 1.926230000000000109e+00 1.320820000000000105e+00
4.968460000000000321e+00 7.363000000000000100e-02 2.582479999999999887e+00 3.961790000000000145e+00 1.965999999999999970e+00 6.477170000000000094e+00 3.943880000000000052e+00 1.978900000000000103e+00 9.218410000000000437e+00 3.786579999999999835e+00 1.618460000000000010e+00 4.019779999999999909e+00 1.346840000000000037e+00 1.944530000000000092e+00 6.446150000000000269e+00 1.272980000000000000e+00 1.808319999999999927e+00 3.782669999999999977e+00 5.036010000000000097e+00 3.493219999999999992e+00 5.087500000000000355e+00 2.904300000000000215e-01 3.321680000000000188e+00 1.102700000000000069e-01 3.044659999999999922e+00 2.992500000000000160e+00 1.870479999999999876e+01 2.419579999999999842e+00 7.364999999999999325e-02 5.120879999999999654e+00 1.491360000000000019e+00 1.977629999999999999e+00 9.060109999999999886e+00 2.615029999999999966e+00 8.300000000000000433e-02 7.844769999999999577e+00 1.603949999999999987e+00 1.482199999999999962e+00 1.132069999999999910e+00 2.586419999999999941e+00 3.262989999999999835e+00 2.598469999999999835e+00 4.061309999999999754e+00 1.656879999999999908e+00 9.626500000000000057e-01 5.106559999999999988e+00 2.435000000000000012e-02 7.811829999999999607e+00
4.041019999999999612e+00 1.917410000000000059e+00 8.996449999999999392e+00 3.689039999999999875e+00 1.942949999999999955e+00 1.394649999999999945e+00 2.330639999999999823e+00 3.726430000000000131e+00 5.095519999999999605e+00 1.568240000000000078e+00 1.830989999999999895e+00 9.089930000000000732e+00 4.894619999999999749e+00 3.639149999999999885e+00 5.247130000000000294e+00 2.356520000000000170e+00 3.712849999999999984e+00 2.585170000000000190e+00 4.867350000000000065e+00 1.513400000000000023e-01 2.659949999999999815e+00 2.467789999999999928e+00 3.695089999999999986e+00 7.641890000000000072e+00 3.459439999999999849e+00 1.943859999999999921e+00 3.887459999999999916e+00 1.087409999999999988e+00 1.945619999999999905e+00 1.444460000000000077e+00 2.300800000000000067e-01 5.383000000000000285e-02 1.753399999999999959e-01 9.716900000000000537e-01 1.915289999999999937e+00 3.911470000000000002e+00 1.150770000000000071e+00 1.975200000000000067e+00 6.518620000000000303e+00 2.582460000000000200e+00 2.271499999999999908e-01 1.724570999999999898e+01 -8.053000000000000436e-02 3.707019999999999982e+00 7.627679999999999794e+00 3.704699999999999882e+00 1.904130000000000100e+00 6.342769999999999797e+00
1.537949999999999928e+00 2.059210000000000207e+00 9.635160000000000835e+00 2.828939999999999788e+00 3.954730000000000079e+00 5.498339999999999783e+00 3.115079999999999849e+00 2.351199999999999957e-01 2.012300000000000111e+01 1.170000000000000033e-03 1.899999999999999996e-03 5.780000000000000415e-03 1.511099999999999943e-01 1.017799999999999955e-01 8.253550000000000608e+00 1.435189999999999966e+00 1.992040000000000033e+00 4.125379999999999825e+00 2.798880000000000035e+00 3.506000000000000089e-02 2.748559999999999892e+00 4.185870000000000424e+00 2.002190000000000136e+00 4.127650000000000041e+00 2.900329999999999853e+00 9.611999999999999711e-02 8.255269999999999442e+00 4.282969999999999722e+00 2.057789999999999786e+00 9.631539999999999324e+00 1.385250000000000092e+00 1.961880000000000068e+00 1.372209999999999930e+00 4.232899999999999885e+00 2.027460000000000040e+00 6.880760000000000431e+00 4.129959999999999631e+00 1.963689999999999936e+00 1.373119999999999896e+00 1.492599999999999927e+00 2.029679999999999929e+00 6.874609999999999665e+00 5.027000000000000218e-02 3.234999999999999681e-02 2.751850000000000129e+00 1.041799999999999948e-01 7.079000000000000570e-02 5.496950000000000003e+00
2.745249999999999968e+00 -4.923000000000000292e-02 5.425539999999999807e+00 2.591260000000000119e+00 3.734970000000000123e+00 2.742200000000000193e-01 1.344049999999999967e+00 1.799670000000000103e+00 9.099550000000000693e+00 5.225360000000000227e+00 3.688559999999999839e+00 2.916910000000000114e+00 2.503350000000000186e+00 3.746570000000000178e+00 2.838189999999999991e+00 5.194149999999999601e+00 -1.069999999999999988e-03 3.672099999999999809e-01 4.330739999999999590e+00 1.926199999999999912e+00 6.721199999999999619e+00 2.841169999999999973e+00 3.617150000000000087e+00 7.917159999999999975e+00 -1.953999999999999834e-02 -2.727999999999999869e-02 8.034079999999999444e+00 3.970260000000000122e+00 1.773209999999999953e+00 9.475149999999999295e+00 5.235999999999999682e-02 6.022999999999999882e-02 5.369510000000000005e+00 1.511370000000000102e+00 1.794140000000000068e+00 6.742429999999999701e+00 1.347860000000000058e+00 1.863830000000000098e+00 4.137839999999999741e+00 4.050670000000000215e+00 1.890390000000000015e+00 4.020179999999999865e+00 3.760619999999999852e+00 1.838090000000000002e+00 1.481230000000000047e+00 1.167550000000000088e+00 1.926220000000000043e+00 1.508340000000000014e+00
3.085039999999999782e+00 1.782600000000000018e-01 1.741100000000000136e+01 2.437829999999999941e+00 2.273000000000000020e-02 2.354919999999999902e+00 3.962169999999999970e+00 1.879440000000000000e+00 6.395109999999999850e+00 3.823570000000000135e+00 1.823180000000000023e+00 3.628760000000000208e+00 5.181289999999999729e+00 8.165999999999999648e-02 5.112099999999999866e+00 4.995669999999999611e+00 3.588820000000000121e+00 7.757039999999999935e+00 1.451959999999999917e+00 1.866910000000000069e+00 6.412480000000000402e+00 1.201900000000000052e-01 2.590399999999999925e-01 2.179149999999999920e+00 1.237519999999999953e+00 1.841040000000000010e+00 3.872259999999999813e+00 1.284450000000000092e+00 1.903690000000000104e+00 8.733999999999999542e-01 6.144899999999999807e-01 3.376199999999999868e+00 1.689959999999999951e+01 3.861790000000000056e+00 1.816140000000000088e+00 7.472299999999999498e-01 2.698430000000000106e+00 3.594259999999999788e+00 5.051980000000000359e+00 3.928889999999999993e+00 1.756000000000000005e+00 9.028200000000000003e+00 2.748190000000000133e+00 1.702899999999999969e-01 7.747180000000000177e+00 1.329099999999999948e+00 1.678620000000000001e+00 8.979269999999999641e+00
2.604159999999999808e+00 3.869949999999999779e+00 2.838760000000000172e+00 3.937899999999999956e+00 1.817790000000000017e+00 3.999859999999999971e+00 8.981999999999999706e-02 3.971999999999999836e-02 1.084999999999999992e-01 4.169120000000000381e+00 2.133739999999999970e+00 1.389729999999999910e+00 1.101029999999999953e+00 2.032719999999999860e+00 9.383960000000000079e+00 4.943000000000000171e-02 2.007099999999999995e-01 8.287819999999999965e+00 4.027540000000000120e+00 2.131530000000000147e+00 9.335990000000000677e+00 2.552439999999999820e+00 4.993999999999999828e-02 4.015799999999999925e-01 1.430390000000000050e+00 1.819350000000000023e+00 6.710759999999999614e+00 5.258200000000000429e+00 1.712100000000000011e-01 2.778890000000000082e+00 2.745499999999999829e+00 2.034100000000000075e-01 8.354689999999999728e+00 2.659100000000000019e+00 3.896659999999999791e+00 5.291859999999999786e+00 5.314119999999999955e+00 3.790840000000000209e+00 5.560629999999999740e+00 4.003549999999999720e+00 2.148350000000000204e+00 6.965270000000000294e+00 1.277360000000000051e+00 1.937910000000000021e+00 4.165160000000000196e+00 1.369529999999999914e+00 2.070889999999999898e+00 1.430369999999999919e+00
1.844489999999999963e+00 3.770760000000000112e+00 8.001360000000000028e+00 3.577170000000000183e+00 1.949820000000000109e+00 8.814149999999999707e+00 4.271950000000000358e+00 1.188999999999999953e-02 5.372180000000000177e+00 1.435410000000000075e+00 4.619000000000000189e-02 5.508880000000000443e+00 2.758030000000000204e+00 1.944709999999999939e+00 6.536220000000000141e+00 3.585480000000000000e+00 6.404999999999999583e-02 7.222399999999999931e-01 4.935959999999999681e+00 1.985689999999999955e+00 1.495730000000000004e+00 1.218830000000000080e+00 3.869590000000000085e+00 2.951109999999999900e+00 4.571909999999999918e+00 2.519000000000000059e-02 7.728089999999999904e+00 2.605719999999999814e+00 1.888649999999999940e+00 4.144120000000000026e+00 5.380279999999999951e+00 1.992129999999999956e+00 6.597570000000000157e+00 8.082300000000000040e-01 3.796949999999999825e+00 5.162799999999999612e-01 3.764209999999999834e+00 3.744159999999999933e+00 3.080410000000000093e+00 9.521999999999999909e-02 1.885350000000000081e+00 4.332139999999999880e+00 2.399589999999999890e+00 2.139790000000000081e+00 1.484439999999999982e+00 7.637599999999999945e-01 1.796229999999999993e+00 9.346669999999999590e+00
3.059610000000000163e+00 1.665999999999999981e-01 1.742989999999999995e+01 2.298130000000000006e+00 3.620150000000000201e+00 2.371170000000000222e+00 4.072040000000000326e+00 1.887869999999999937e+00 6.483900000000000219e+00 3.896780000000000133e+00 1.852090000000000014e+00 3.621789999999999843e+00 5.003490000000000215e+00 3.648620000000000196e+00 5.120919999999999916e+00 5.149130000000000429e+00 5.399000000000000327e-02 7.790000000000000036e+00 1.455699999999999994e+00 1.836289999999999978e+00 6.374109999999999943e+00 7.069999999999999896e-02 2.058999999999999997e-01 2.240380000000000038e+00 1.291160000000000085e+00 1.856289999999999996e+00 3.800250000000000128e+00 1.293870000000000076e+00 1.907010000000000094e+00 8.529299999999999660e-01 5.877900000000000347e-01 3.368370000000000086e+00 1.689920000000000044e+01 3.883970000000000145e+00 1.874079999999999968e+00 7.674800000000000511e-01 2.704140000000000210e+00 3.628029999999999866e+00 5.048499999999999766e+00 3.937590000000000146e+00 1.692949999999999955e+00 9.001260000000000261e+00 2.655229999999999979e+00 1.814699999999999924e-01 7.713149999999999729e+00 1.299039999999999973e+00 1.697710000000000052e+00 8.934630000000000294e+00
4.003440000000000332e+00 2.012859999999999872e+00 3.560929999999999929e+00 1.115129999999999955e+00 2.081770000000000120e+00 8.818030000000000257e+00 2.662339999999999929e+00 3.712499999999999911e+00 4.830630000000000202e+00 1.348680000000000101e+00 1.864880000000000093e+00 6.400579999999999714e+00 4.923440000000000261e+00 3.647190000000000154e+00 7.636210000000000164e+00 3.543940000000000090e+00 2.270589999999999886e+00 7.014200000000000434e-01 4.892570000000000086e+00 7.611700000000000133e-01 1.261009999999999920e+01 2.491140000000000132e+00 5.727700000000000014e-01 1.271480000000000032e+01 4.417999999999999705e-02 4.225700000000000012e-01 2.210710000000000175e+00 3.821470000000000145e+00 2.107610000000000205e+00 6.154950000000000365e+00 1.304689999999999905e+00 2.060119999999999951e+00 7.086000000000000076e-01 2.422979999999999912e+00 3.721099999999999963e-01 2.084569999999999812e+00 1.618300000000000016e-01 1.985500000000000043e-01 5.001400000000000290e+00 3.613599999999999923e+00 2.949100000000000055e+00 1.094009999999999927e+01 1.510550000000000059e+00 2.051670000000000105e+00 3.354210000000000136e+00 2.504999999999999893e+00 1.600300000000000056e-01 7.685310000000000308e+00
4.058530000000000193e+00 1.970029999999999948e+00 3.998660000000000103e+00 1.275619999999999976e+00 1.792510000000000048e+00 8.812459999999999738e+00 -5.954000000000000264e-02 3.716130000000000155e+00 7.965429999999999566e+00 3.847710000000000186e+00 1.742180000000000062e+00 8.999259999999999593e+00 2.832409999999999872e+00 1.658499999999999974e-01 4.592000000000000248e-02 1.176770000000000094e+00 2.178199999999999914e+00 4.125140000000000029e+00 1.457929999999999948e+00 2.228209999999999802e+00 1.520890000000000075e+00 2.577999999999999847e+00 2.043800000000000061e-01 2.876310000000000144e+00 3.841340000000000199e+00 2.150069999999999926e+00 1.558009999999999895e+00 2.621100000000000207e+00 3.721499999999999808e+00 7.845570000000000377e+00 1.236690000000000067e+00 2.068080000000000140e+00 6.541030000000000122e+00 -9.325999999999999568e-02 2.260000000000000064e-01 5.437520000000000131e+00 3.900319999999999787e+00 2.011130000000000084e+00 6.488229999999999720e+00 2.549619999999999997e+00 1.788299999999999890e-01 5.442580000000000418e+00 5.276489999999999903e+00 1.979400000000000048e-01 3.063070000000000181e+00 3.697999999999999898e-02 2.096600000000000130e-01 5.701500000000000457e-01
4.064079999999999693e+00 2.003629999999999800e+00 3.650999999999999801e+00 1.049060000000000104e+00 2.007610000000000117e+00 8.870089999999999364e+00 2.633989999999999831e+00 3.703089999999999993e+00 4.817700000000000315e+00 1.338819999999999899e+00 1.860020000000000007e+00 6.397409999999999819e+00 4.901570000000000427e+00 3.605280000000000040e+00 7.670390000000000263e+00 3.576420000000000154e+00 2.346229999999999816e+00 7.011500000000000510e-01 4.863900000000000112e+00 8.399400000000000199e-01 1.263739999999999952e+01 2.493250000000000188e+00 5.286699999999999733e-01 1.264789999999999992e+01 1.246000000000000059e-02 4.756500000000000172e-01 2.212209999999999788e+00 3.789250000000000007e+00 2.107470000000000176e+00 6.143869999999999720e+00 1.237610000000000099e+00 2.110129999999999839e+00 7.211400000000000032e-01 2.468339999999999979e+00 3.535200000000000009e-01 2.011719999999999953e+00 2.557200000000000029e-01 2.167699999999999905e-01 4.985909999999999620e+00 3.590460000000000207e+00 2.959449999999999914e+00 1.088509999999999955e+01 1.620730000000000004e+00 2.010769999999999946e+00 3.313330000000000108e+00 2.429339999999999833e+00 3.731749999999999901e+00 7.746240000000000236e+00
1.499840000000000062e+00 5.831000000000000072e-02 8.206239999999999313e+00 3.298610000000000042e+00 1.805099999999999927e+00 9.072010000000000574e+00 3.904430000000000067e+00 1.237000000000000079e-02 5.249520000000000408e+00 1.316999999999999948e+00 3.826369999999999827e+00 5.505379999999999718e+00 2.686269999999999936e+00 1.933550000000000102e+00 6.708660000000000068e+00 4.250350000000000072e+00 2.580000000000000002e-02 4.971700000000000008e-01 1.171500000000000041e-01 2.032939999999999969e+00 1.595280000000000031e+00 1.069970000000000088e+00 3.851329999999999920e+00 2.829569999999999919e+00 4.281799999999999606e+00 3.853299999999999947e+00 8.027060000000000528e+00 2.537920000000000176e+00 1.894409999999999927e+00 4.152400000000000091e+00 2.532599999999999851e-01 2.056830000000000158e+00 6.631649999999999601e+00 1.461829999999999963e+00 3.829699999999999882e+00 2.940099999999999936e-01 3.766000000000000014e+00 3.793779999999999930e+00 2.773579999999999934e+00 5.169190000000000396e+00 1.981780000000000097e+00 4.148119999999999585e+00 2.573249999999999815e+00 1.931049999999999933e+00 1.438739999999999908e+00 4.960600000000000009e-01 1.901739999999999986e+00 9.502219999999999445e+00