-5.270028097000000145e+01
-5.247876092999999997e+01
-5.234237511999999981e+01
-5.269762395000000055e+01
-5.357592598000000095e+01
-5.340446357999999805e+01
-5.375361413000000255e+01
-5.163133824999999888e+01
-5.188328820000000263e+01
-5.224548554999999794e+01
-5.338978441999999802e+01
-5.114691468000000185e+01
-5.343612660000000147e+01
-5.169001298999999960e+01
-5.237487907999999948e+01
-5.239478261000000003e+01
-5.357162885999999702e+01
-5.325410114000000306e+01
-5.170562385000000205e+01
-5.125001328999999828e+01
-5.290382044999999778e+01
-5.170860934000000242e+01
-5.085746826999999826e+01
-5.072784725000000350e+01
-5.288147391999999769e+01
-5.227342853999999761e+01
-5.155315388999999726e+01
-5.204917617000000263e+01
-5.181737812000000076e+01
-5.208614327000000088e+01
-5.384880179000000311e+01
