-1.217332009307850882e+01 3.273119347076395513e+00 1.203072664162958327e+00 3.273119347076395513e+00 -1.060347949041213056e+01 3.394997004342066749e+00 1.203072664162958327e+00 3.394997004342066749e+00 -8.012851688259439165e-01
