1.212279603999533828e+00 3.636839865749779577e+00 1.212280798750795308e+00 -5.414999410847024702e-07 2.424559046000944296e+00 4.849110477000364128e+00 3.636839603999519888e+00 3.636840074249988675e+00 1.212280965251029352e+00 1.212279437500027646e+00 3.636839388751262891e+00 3.636830798750742666e+00 1.212279812499775566e+00 1.212279865749834817e+00 1.212280321750325518e+00 -3.329996993525216104e-07 -9.539990004706200469e-07 4.849109999999894782e+00 2.424559416500855935e+00 4.849109731501582310e+00 2.424551120499153445e+00 2.424559667000286467e+00 -7.454987914951789089e-07 4.849110166500128827e+00 1.212279646000269384e+00 1.212279388751318354e+00 3.636830321750272876e+00 -1.665001930379286008e-07 -4.770004839199454390e-07 2.424559999999947646e+00 2.424559458500044951e+00 2.424559254501152950e+00 4.849110643500598172e+00 -3.750004347701094340e-07 2.424559522999460981e+00 2.424560477000416991e+00 2.424559624999551133e+00 2.424559731499669635e+00 2.424560643500651036e+00 3.636839646000255222e+00 1.212279597251527452e+00 3.636830488250506921e+00 3.636839812499761404e+00 1.212280074250043915e+00 1.212280488250559563e+00 3.636839437500013705e+00 3.636839597251471989e+00 3.636830965250976710e+00
1.208359604428692835e+00 3.634899866164214011e+00 1.208460798099930011e+00 4.846789458956757279e+00 2.423089463747298389e+00 4.844300809551622677e+00 3.637309603960066973e+00 3.636620074123180224e+00 1.213130965240023063e+00 1.213749436888849953e+00 3.641239388210737449e+00 3.640220799717333033e+00 1.211099812223459304e+00 1.213919865260788988e+00 1.214250321991940718e+00 4.845749250133415842e+00 4.847629462727242711e+00 4.849031286476738423e+00 2.424299833434894413e+00 1.973129636836370984e-05 2.425480166486261524e+00 2.425259250046518655e+00 4.848999254665565140e+00 4.848581120525530253e+00 1.211369646257431931e+00 1.207939388340577569e+00 3.638520320833943167e+00 4.847809833490077658e+00 1.669940270917457921e-03 2.422610333239005875e+00 2.423359458527427623e+00 2.426229254887834141e+00 4.846620643746741841e+00 2.169624746455081545e-03 2.423789522271243779e+00 2.429210476997948565e+00 2.428669624998889276e+00 2.424399731811794911e+00 2.424770643751416710e+00 3.640299645979406140e+00 1.212769597610058536e+00 3.636520488584514599e+00 3.639529812295192901e+00 1.212910074050516762e+00 1.214470488559232342e+00 3.636189437634104404e+00 3.636789597567408272e+00 3.634940965196502560e+00
1.204509604849264282e+00 3.632979866564994165e+00 1.204740797457806600e+00 4.844499459404724817e+00 2.421649464478968561e+00 4.839580809111062365e+00 3.637769603924741801e+00 3.636360073997478626e+00 1.213970965220460663e+00 1.215189436293479197e+00 3.645559387693208198e+00 3.643480800666124786e+00 1.209969811951949969e+00 1.215559864789814259e+00 1.216150322236989600e+00 4.842419250259996311e+00 4.846189462448748486e+00 4.848991285964758369e+00 2.424029833374802934e+00 3.973110592330611284e-05 2.426330166471654781e+00 2.425989250082754012e+00 4.848929254814906109e+00 4.848141120561889394e+00 1.210519646510807901e+00 1.203659387938931236e+00 3.640190319933537477e+00 4.846559833485197366e+00 3.259940541158483276e-03 2.420690333465977062e+00 2.422199458558255802e+00 2.427819255268118148e+00 4.844180643979894008e+00 4.369624491445616744e-03 2.423089521557410642e+00 2.433800477011311969e+00 2.432629624995133799e+00 2.424259732107085785e+00 2.425000643995815608e+00 3.643639645961483708e+00 1.213209597954335806e+00 3.636230488900444424e+00 3.642149812091990402e+00 1.213580073858741670e+00 1.216590488870967768e+00 3.635569437764241574e+00 3.636769597881989391e+00 3.633070965149991505e+00
1.200799605253521696e+00 3.631089866938466582e+00 1.201220796831199422e+00 4.842289459837403776e+00 2.420259465186039183e+00 4.835020808685832172e+00 3.638219603898355192e+00 3.636020073876819581e+00 1.214780965184472761e+00 1.216529435726115826e+00 3.649729387210360887e+00 3.646520801578539306e+00 1.208919811693321300e+00 1.217169864355229780e+00 1.217900322481629827e+00 4.839129250377983027e+00 4.844809462163857106e+00 4.849001285467329225e+00 2.423719833326559048e+00 4.973094351635423178e-05 2.427020166452333871e+00 2.426809250094762671e+00 4.848989254934606308e+00 4.847891120630005268e+00 1.209779646754718607e+00 1.199529387556581117e+00 3.641810319070196478e+00 4.845409833491674867e+00 4.669940808194803644e-03 2.418830333664402588e+00 2.421119458596836083e+00 2.429239255635607719e+00 4.841840644185094966e+00 6.639624231090845465e-03 2.422539520871237695e+00 2.438280477058992535e+00 2.436289624990005009e+00 2.424119732372643554e+00 2.425250644219613783e+00 3.646739645951473374e+00 1.213549598276006947e+00 3.635950489180219236e+00 3.644619811893069716e+00 1.214320073683577528e+00 1.218560489186173879e+00 3.634979437886125542e+00 3.636829598195215230e+00 3.631220965121278788e+00
1.197269605635971068e+00 3.629229867272332211e+00 1.197980796222855693e+00 4.840179460245175314e+00 2.418959465852526414e+00 4.830710808285175517e+00 3.638649603886755290e+00 3.635540073762310254e+00 1.215550965119567950e+00 1.217759435197926621e+00 3.653699386781010805e+00 3.649240802444051024e+00 1.207979811451006968e+00 1.218749863969452285e+00 1.219450322727922087e+00 4.835919250481189202e+00 4.843529461868139485e+00 4.849101284995067651e+00 2.423369833295829334e+00 3.973082291909320731e-05 2.427480166426331021e+00 2.427729667075126940e+00 7.925500792982082107e-05 4.847920166733559633e+00 1.209209646985723641e+00 1.195589387198686904e+00 3.643380318255909689e+00 4.844429833512609918e+00 5.839941072143969153e-03 2.417060333827286467e+00 2.420149458644894391e+00 2.430429255983046488e+00 4.839650644352599507e+00 9.009623964351402142e-03 2.422199520227109826e+00 2.442590477154855666e+00 2.439529624978862721e+00 2.424009732592246280e+00 2.425550644420470636e+00 3.649499645950756044e+00 1.213749598560570409e+00 3.635710489409102575e+00 3.646869811700143682e+00 1.215150073528842078e+00 1.220330489503977933e+00 3.634429437995976286e+00 3.636989598502044618e+00 3.629420965114987130e+00
1.193989605989225211e+00 3.627429867558837895e+00 1.195090795643483750e+00 4.838229460623745481e+00 2.417759466473750507e+00 4.826700807915179858e+00 3.639049603893035112e+00 3.634900073657024944e+00 1.216260965021125351e+00 1.218839434719738213e+00 3.657399386415487896e+00 3.651570803246144248e+00 1.207179811230673749e+00 1.220289863648832851e+00 1.220730322975959181e+00 4.832809583566048950e+00 4.842380415560348261e+00 1.912845553544297408e-04 2.422959833284329179e+00 2.973075224846751180e-05 2.427660166396207853e+00 2.428799667015320018e+00 4.792550271518745443e-04 4.848290166885734109e+00 1.208839647200896872e+00 1.191889386871763490e+00 3.644880317502574130e+00 4.843639833552651375e+00 6.699941330791142798e-03 2.415400333942228528e+00 2.419319458705356585e+00 2.431339256309078767e+00 4.837630644474631758e+00 1.151962368984765783e-02 2.422109519634368713e+00 2.446700477309516675e+00 2.442229624962393597e+00 2.423929732757542421e+00 2.425890644590147360e+00 3.651819645965690420e+00 1.213759598805328466e+00 3.635480489570389384e+00 3.648859811513206264e+00 1.216110073400932245e+00 1.221850489829503505e+00 3.633939438090354468e+00 3.637289598804196444e+00 3.627670965140358916e+00
1.190999606310883863e+00 3.625669867789619971e+00 1.192610795091896492e+00 4.836449460966413483e+00 2.416689467038769301e+00 4.823050807582434985e+00 3.639399603920633552e+00 3.634060073559243875e+00 1.216910964879901691e+00 1.219749434298937674e+00 3.660799386125845878e+00 3.653440803977541229e+00 1.206529811034209310e+00 1.221799863402101227e+00 1.221700323228394947e+00 4.829809583629554481e+00 4.841370415235473068e+00 5.312841506330805846e-04 2.422479833297723761e+00 9.730744416111561054e-06 2.427490166359310475e+00 2.430029666907578267e+00 1.109254979470994168e-03 4.849070167094144956e+00 1.208699647397312171e+00 1.188479386582325104e+00 3.646290316822087263e+00 4.843089833613861472e+00 7.209941584501340650e-03 2.413870334004795115e+00 2.418649458780636419e+00 2.431909256607555747e+00 4.835820644540762103e+00 1.416962340671346597e-02 2.422319519102851260e+00 2.450560477532812698e+00 2.444299624940084570e+00 2.423869732856857695e+00 2.426290644720494605e+00 3.653619645997483900e+00 1.213549598999466905e+00 3.635280489652684910e+00 3.650529811331737928e+00 1.217230073300590076e+00 1.223090490164531641e+00 3.633519438167025939e+00 3.637739599098596788e+00 3.625990965200047711e+00
1.188349606596993846e+00 3.623979867965044122e+00 1.190560794577429471e+00 4.834859461268713687e+00 2.415769467541432292e+00 4.819800807292248024e+00 3.639709603973851237e+00 3.632970073469827810e+00 1.217500964686746956e+00 1.220469433940164938e+00 3.663869385916265209e+00 3.654820804630967590e+00 1.206059810866766169e+00 1.223259863241674017e+00 1.222310323483354777e+00 4.826939583667453348e+00 4.840530414890298339e+00 1.031283788284410212e-03 2.421929416341369823e+00 4.849079730811115319e+00 2.426911120312643000e+00 2.431439999747481817e+00 1.970208853803336393e-03 1.210167360271537269e-03 1.208819647573595946e+00 1.185359386329017273e+00 3.647630316216508461e+00 4.842789833698824431e+00 7.339941834134514065e-03 2.412470334009768624e+00 2.418159458871766532e+00 2.432119256878229940e+00 4.834230644548426881e+00 1.698962311391565352e-02 2.422849518637104183e+00 2.454160477830739318e+00 2.445659624911248109e+00 2.423829732881344512e+00 2.426760644806019496e+00 3.654839646052322255e+00 1.213079599145695520e+00 3.635070489643998926e+00 3.651879811153845967e+00 1.218540073229783305e+00 1.224040490514964663e+00 3.633139438222551476e+00 3.638379599382664864e+00 3.624380965299863977e+00
1.186059606845494940e+00 3.622359868080927026e+00 1.188970794101456230e+00 4.833509461527726536e+00 2.415009467980137270e+00 4.816980807050020630e+00 3.639969604056815022e+00 3.631590073389883599e+00 1.218020964433104814e+00 1.221009433644966835e+00 3.666599385789573340e+00 3.655700805205142512e+00 1.205739810729891781e+00 1.224659863166938756e+00 1.222550323736811384e+00 4.824229583679747080e+00 4.839860414527405119e+00 1.691283470368588936e-03 2.421299416415715111e+00 4.849029730957609807e+00 2.425891120259542344e+00 2.433039999531510400e+00 3.060208641203694332e-03 2.990167684590503815e-03 1.209209647729228232e+00 1.182559386118601674e+00 3.648870315692427369e+00 4.842779833809256473e+00 7.069942083130466987e-03 2.411200333955963337e+00 2.417859458979779941e+00 2.431949257119993657e+00 4.832870644494380308e+00 1.996962281196771813e-02 2.423709518240202421e+00 2.457480478204576713e+00 2.446239624874338325e+00 2.423819732823016881e+00 2.427310644843882148e+00 3.655419646133299949e+00 1.212329599242789380e+00 3.634830489536276410e+00 3.652869810975916565e+00 1.220090073187039437e+00 1.224690490887892613e+00 3.632809438254698264e+00 3.639219599653326753e+00 3.622860965442461723e+00
1.184169607057073748e+00 3.620809868142676358e+00 1.187830793666722951e+00 4.832399461740870095e+00 2.414439468354883545e+00 4.814590806861653860e+00 3.640169604170557349e+00 3.629900073316583597e+00 1.218480964114353915e+00 1.221369433415062877e+00 3.668969385745771916e+00 3.656080805696131364e+00 1.205579810625299508e+00 1.226019863188592129e+00 1.222370323993385854e+00 4.821689583662480239e+00 4.839390414143719177e+00 2.531283203474447852e-03 2.420599416525256675e+00 4.848969731196453914e+00 2.424371120199667828e+00 2.434829999259023214e+00 4.360208334770432695e-03 5.330168063271957697e-03 1.209889647863696238e+00 1.180069385948863347e+00 3.650030315249249924e+00 4.843059833944646009e+00 6.389942327554460136e-03 2.410080333841410294e+00 2.417759459103816955e+00 2.431409257333707163e+00 4.831740644381274485e+00 2.311962250396300267e-02 2.424879517916942007e+00 2.460500478651077128e+00 2.445989624828841524e+00 2.423829732673639104e+00 2.427960644828681680e+00 3.655329646244023678e+00 1.211289599296038411e+00 3.634520489325489656e+00 3.653529810795543398e+00 1.221900073172970780e+00 1.225050491289310095e+00 3.632509438261744439e+00 3.640279599908862185e+00 3.621430965630401122e+00
1.182739607231557244e+00 3.619339868157419371e+00 1.187130793279318475e+00 4.831559461906086206e+00 2.414059468662350216e+00 4.812660806729209817e+00 3.640309604319378334e+00 3.627850073249927920e+00 1.218880963720657240e+00 1.221579433245813640e+00 3.671009385781537127e+00 3.655990806111895974e+00 1.205559810556082745e+00 1.227319863308849124e+00 1.221750324247770303e+00 4.819339583613593270e+00 4.839120413735056303e+00 3.581282988975432232e-03 2.419819416674287904e+00 4.848889731536623060e+00 2.422301120130364360e+00 2.436809998928821219e+00 5.860207928601441491e-03 8.260168494348530885e-03 1.210859647975966125e+00 1.177909385821770183e+00 3.651100314890910248e+00 4.843649834105334229e+00 5.319942575028503359e-03 2.409080333671418384e+00 2.417879459243191143e+00 2.430499257519122214e+00 4.830850644210484823e+00 2.641962219058823294e-02 2.426359517667568522e+00 2.463210479168866485e+00 2.444879624772524185e+00 2.423869732426696455e+00 2.428730644760324520e+00 3.654549646389818829e+00 1.209929599311591719e+00 3.634100489004362888e+00 3.653849810605165338e+00 1.224010073174913504e+00 1.225180491726399978e+00 3.632219438243004639e+00 3.641559600145583886e+00 3.620100965862309117e+00
1.181779607367911877e+00 3.617969868127983268e+00 1.186860792943863263e+00 4.830999462023027213e+00 2.413889468907330471e+00 4.811170806657307786e+00 3.640379604506031264e+00 3.625400073187089678e+00 1.219230963243458810e+00 1.221659433136877970e+00 3.672699385892686852e+00 3.655460806449875033e+00 1.205639810523788213e+00 1.228549863526237296e+00 1.220680324495250657e+00 4.817229583531538850e+00 4.839060413303750252e+00 4.851282832272530571e-03 2.418979416864009302e+00 4.848799731985740102e+00 2.419651120054973070e+00 2.438959998543829055e+00 7.510207417042085408e-03 1.180016896660992728e-02 1.212109648067758005e+00 1.176059385736461849e+00 3.652080314612787593e+00 4.844549834288737422e+00 3.889942825552595435e-03 2.408200333451889996e+00 2.418209459397381966e+00 2.429249257681282081e+00 4.830170643987226065e+00 2.983962187528321416e-02 2.428109517489502878e+00 2.465610479748014949e+00 2.442869624707105558e+00 2.423919732078750666e+00 2.429620644632130233e+00 3.653059646574120745e+00 1.208249599297566590e+00 3.633520488571522655e+00 3.653849810399971254e+00 1.226460073190652533e+00 1.225100492208405667e+00 3.631919438196245853e+00 3.643069600357836446e+00 3.618890966138780030e+00
1.181359607468885020e+00 3.616699868068256940e+00 1.186980792665164985e+00 4.830739462090659408e+00 2.413949469093513045e+00 4.810110806651256787e+00 3.640379604731721841e+00 3.622520073124134488e+00 1.219550962676856365e+00 1.221649433078463298e+00 3.674089386066923257e+00 3.654570806722652776e+00 1.205799810528929372e+00 1.229719863842971161e+00 1.219140324736420311e+00 4.815369583415284538e+00 4.839230412852629115e+00 6.331282737987202307e-03 2.418069417097167495e+00 4.848699732550814545e+00 2.416381119972808023e+00 2.441269998106974093e+00 9.260206795297673196e-03 1.597016946953257882e-02 1.213629648140105433e+00 1.174499385690111364e+00 3.652980314410259499e+00 4.845749834494514019e+00 2.119943082201523801e-03 2.407420333186072625e+00 2.418759459564497227e+00 2.427689257823013147e+00 4.829690643718086207e+00 3.332962156389437242e-02 2.430069517380412769e+00 2.467690480373286199e+00 2.439939624627947445e+00 2.424009731622178698e+00 2.430660644448626506e+00 3.650859646801736247e+00 1.206249599267734451e+00 3.632710488026969831e+00 3.653569810172573984e+00 1.229280073209855662e+00 1.224880492743975369e+00 3.631549438120780238e+00 3.644809600538494454e+00 3.617810966455693666e+00
1.181509607536876949e+00 3.615549867992624122e+00 1.187430792449218453e+00 4.830789462112078603e+00 2.414219469225691750e+00 4.809460806707809510e+00 3.640309604998516857e+00 3.619170073057126125e+00 1.219860962012980776e+00 1.221599433064042284e+00 3.675199386294772719e+00 3.653390806937596658e+00 1.205989810572539067e+00 1.230809864252784047e+00 1.217140324963911668e+00 4.813809583262943725e+00 4.839620412378121905e+00 8.061282707585697843e-03 2.417099417377542192e+00 4.848569733238607959e+00 2.412461119880619620e+00 2.443679997624102374e+00 1.105020606017587288e-02 2.076016998719192735e-02 1.215409648194554659e+00 1.173219385683825555e+00 3.653790314280672913e+00 4.847239834717153251e+00 8.994334805007479338e-05 2.406720332889018099e+00 2.419529459740063171e+00 2.425879257946282674e+00 4.829400643414869521e+00 3.682962126244137407e-02 2.432169517335138753e+00 2.469450481026786992e+00 2.436089624536940779e+00 2.424109731055013484e+00 2.431860644203911459e+00 3.647969647073690425e+00 1.203949599231684653e+00 3.631630487376011907e+00 3.653059809914037892e+00 1.232510073221084523e+00 1.224600493344412788e+00 3.631099438015062297e+00 3.646789600684729571e+00 3.616870966814330401e+00
1.182259607572914373e+00 3.614539867911535254e+00 1.188170792302018386e+00 4.831169462086762678e+00 2.414729469311489574e+00 4.809190806834241272e+00 3.640169605307449263e+00 3.615330072984098919e+00 1.220170961247896813e+00 1.221569433084167544e+00 3.676059386561722597e+00 3.652020807104730427e+00 1.206149810656851562e+00 1.231809864754450867e+00 1.214660325171636135e+00 4.812589583073308752e+00 4.840260411887603809e+00 1.002128274971701705e-02 2.416099417704101082e+00 4.848429734053667950e+00 2.407881119784404778e+00 2.446179997105187187e+00 1.278020521475147289e-02 2.615017049922756243e-02 1.217399648233858489e+00 1.172179385711337840e+00 3.654520314212724941e+00 4.848999417953249846e+00 4.846969943625202504e+00 2.406081286570130207e+00 2.420509459923387841e+00 2.423859258058101318e+00 4.829260643084760218e+00 4.026962097608390717e-02 2.434349517347659919e+00 2.470890481691905727e+00 2.431319624431166559e+00 2.424229730371352698e+00 2.433250643899953047e+00 3.644439647396165771e+00 1.201349599211423147e+00 3.630190486622082435e+00 3.652359809618010544e+00 1.236160073212039467e+00 1.224340494014432013e+00 3.630519437879610845e+00 3.648979600786339095e+00 3.616100967205353900e+00
1.183659607583004592e+00 3.613679867848963223e+00 1.189100792228966030e+00 4.831869462021925798e+00 2.415459469365783374e+00 4.809220807025929467e+00 3.639979605657319706e+00 3.610990072900869041e+00 1.220510960381010923e+00 1.221619433124578880e+00 3.676739386849323221e+00 3.650580807241945447e+00 1.206219810779805890e+00 1.232719865336909804e+00 1.211730325355473870e+00 4.811739582848960417e+00 4.841120411383654343e+00 1.221128286053922533e-02 2.415069418077529839e+00 4.848279734997961832e+00 2.402631119684161654e+00 2.448709996559681468e+00 1.438020426370162017e-02 3.209017098774755161e-02 1.219579648262144156e+00 1.171339385772895314e+00 3.655160314197171356e+00 1.879418198116164854e-03 4.844609526916785036e+00 2.405470953242707655e+00 2.421709460109477519e+00 2.421719258167197797e+00 4.829230642746149549e+00 4.355962071376795475e-02 2.436489517406303928e+00 2.472030482338855251e+00 2.425679624309078353e+00 2.424379729573528763e+00 2.434840643542151017e+00 3.640319647767782385e+00 1.198489599217152257e+00 3.628360485776484623e+00 3.651549809275044911e+00 1.240260073169926480e+00 1.224200494765428582e+00 3.629769437714599700e+00 3.651369600837917950e+00 3.615510967624051109e+00
1.185699607570235514e+00 3.612989867817819611e+00 1.190150792233308996e+00 4.832879461920142283e+00 2.416419469397552255e+00 4.809500807284155854e+00 3.639759606046066409e+00 3.606150072803255391e+00 1.220910959413696206e+00 1.221809433173082882e+00 3.677269387135192247e+00 3.649210807359263509e+00 1.206139810938655632e+00 1.233539865987131501e+00 1.208390325511304431e+00 4.811279582588865011e+00 4.842220410869960467e+00 1.462128304536050409e-02 2.414049418497489441e+00 4.848099736069027443e+00 2.396741119578703394e+00 2.451229996002538325e+00 1.574020321932546526e-02 3.850017142836394818e-02 1.221889648281477392e+00 1.170659385859404100e+00 3.655730314222023658e+00 4.069418445361299916e-03 4.842229527227090990e+00 2.404850952924866281e+00 2.423089460294199249e+00 2.419539258278001537e+00 4.829270642412031300e+00 4.657962048409300393e-02 2.438489517500749937e+00 2.472870482939719228e+00 2.419239624171709124e+00 2.424539728665593863e+00 2.436640643131379402e+00 3.635699648189046673e+00 1.195419599270382660e+00 3.626070484855236309e+00 3.650689808877760179e+00 1.244800073076296920e+00 1.224300495599556005e+00 3.628809437522094061e+00 3.653919600832089998e+00 3.615120968059804873e+00
1.188389607542160276e+00 3.612469867840605087e+00 1.191210792315734457e+00 4.834189461790860065e+00 2.417579469425608973e+00 4.809930807602331271e+00 3.639509606467504543e+00 3.600850072683388081e+00 1.221410958353822629e+00 1.222219433211465089e+00 3.677749387398665082e+00 3.648050807481852953e+00 1.205829811131686746e+00 1.234249866688399644e+00 1.204690325629699243e+00 4.811229582296803642e+00 4.843540410354144399e+00 1.722128330161956655e-02 2.413059418958138469e+00 4.847909737256779650e+00 2.390271119473338146e+00 2.453669995448364727e+00 1.677020209527704808e-02 4.528017179856336921e-02 1.224269648297018342e+00 1.170079385965703711e+00 3.656230314271355919e+00 6.379418687100274661e-03 4.839929527551650068e+00 2.404210952631004261e+00 2.424659460472388339e+00 2.417419258401209081e+00 4.829330642102764415e+00 4.921962029445835912e-02 2.440239517615637066e+00 2.473440483465304318e+00 2.412089624019059020e+00 2.424709727655288471e+00 2.438650642673817259e+00 3.630699648658580081e+00 1.192179599387336308e+00 3.623290483874447077e+00 3.649879808422555438e+00 1.249750072922043875e+00 1.224730496517779432e+00 3.627609437303301210e+00 3.656599600762341140e+00 3.614950968504652806e+00
1.191689607505646453e+00 3.612119867933553774e+00 1.192180792473495288e+00 4.835759461642489043e+00 2.418929469468154903e+00 4.810400807975741877e+00 3.639289606915272923e+00 3.595140072540524923e+00 1.222040957215346779e+00 1.222889433223578681e+00 3.678239387611704103e+00 3.647260807624264967e+00 1.205249811352372191e+00 1.234869867423502576e+00 1.200700325711846261e+00 4.811589581978101826e+00 4.845050409844075645e+00 1.997128362341430569e-02 2.412129419454156487e+00 4.847699738546094039e+00 2.383311119368157538e+00 2.456009994915028471e+00 1.739020092131437698e-02 5.227017208123340558e-02 1.226639648315473341e+00 1.169529386086882505e+00 3.656650314325904372e+00 8.749418917480473665e-03 4.837809527893175421e+00 2.403510952376675558e+00 2.426379460640425201e+00 2.415449258545185884e+00 4.829350641833308977e+00 5.136962015380997643e-02 2.441619517737570355e+00 2.473760483884446693e+00 2.404379623851127690e+00 2.424889726555510272e+00 2.440870642179765682e+00 3.625459649168815357e+00 1.188849599578084337e+00 3.620030482859470045e+00 3.649199807906003290e+00 1.255070072694373318e+00 1.225590497517722310e+00 3.626139437063208071e+00 3.659359600628059095e+00 3.614990968946698580e+00
1.195509607468248081e+00 3.611939868110567886e+00 1.192950792700410823e+00 4.837549461485342484e+00 2.420429469541423906e+00 4.810810808393770621e+00 3.639119607379572408e+00 3.589110072370483628e+00 1.222830956017348703e+00 1.223859433194302904e+00 3.678819387754140191e+00 3.646960807804984217e+00 1.204329811594532007e+00 1.235399868168715054e+00 1.196510325752938364e+00 4.812319581637914290e+00 4.846730409346152513e+00 2.282128400406308738e-02 2.411289419975583659e+00 4.847489739915939566e+00 2.375981119269158892e+00 2.458199994420395829e+00 1.752019972461561770e-02 5.931017225720150443e-02 1.228919648340801807e+00 1.168939386210158915e+00 3.657020314366402403e+00 1.110941912841588268e-02 4.835979528249578330e+00 2.402730952178713686e+00 2.428209460794003682e+00 2.413719258716328753e+00 4.829280641618624692e+00 5.292962006336046632e-02 2.442559517844179240e+00 2.473900484176508208e+00 2.396289623671521429e+00 2.425069725389608077e+00 2.443260641659619203e+00 3.620139649713046914e+00 1.185499599854419550e+00 3.616300481835064584e+00 3.648729807327943053e+00 1.260690072382458782e+00 1.226970498591107850e+00 3.624409436806287133e+00 3.662139600428135910e+00 3.615250969374824042e+00
3.573669999999999902e+00 3.561580000000000190e+00 1.202220000000000066e+00 1.207629999999999981e+00 1.212110000000000021e+00 1.204429999999999890e+00 -9.910000000000000406e-03 2.422540000000000138e+00 2.408049999999999802e+00 1.139170000000000016e+00 3.556970000000000187e+00 1.203340000000000076e+00 1.190940000000000110e+00 3.637030000000000207e+00 3.605269999999999975e+00 2.419729999999999936e+00 3.340000000000000087e-03 1.399999999999999877e-04 3.677890000000000104e+00 1.278520000000000101e+00 3.607200000000000184e+00 3.626949999999999896e+00 3.628140000000000143e+00 3.601989999999999803e+00 4.828739999999999810e+00 4.835720000000000240e+00 4.800500000000000433e+00 2.351710000000000189e+00 4.770690000000000097e+00 2.403230000000000199e+00 4.903780000000000250e+00 6.937000000000000111e-02 2.403869999999999951e+00 2.413600000000000190e+00 2.424469999999999903e+00 2.394280000000000186e+00 3.638900000000000023e+00 1.206509999999999971e+00 1.204939999999999900e+00 2.358439999999999870e+00 2.350350000000000161e+00 2.739999999999999814e-03 1.259660000000000002e+00 1.285910000000000108e+00 3.608169999999999877e+00 4.293999999999999900e-02 2.486709999999999976e+00 4.796630000000000393e+00
3.575060000000000127e+00 3.563369999999999926e+00 1.202239999999999975e+00 1.204210000000000003e+00 1.213430000000000009e+00 1.203829999999999956e+00 4.840580000000000105e+00 2.425679999999999836e+00 2.407410000000000050e+00 1.142120000000000024e+00 3.558190000000000186e+00 1.200530000000000097e+00 1.189109999999999889e+00 3.637859999999999872e+00 3.610939999999999817e+00 2.524030000000000218e+00 1.397700000000000053e-01 4.805039999999999978e+00 3.680379999999999985e+00 1.279689999999999994e+00 3.606619999999999937e+00 3.628449999999999953e+00 3.626170000000000115e+00 3.600330000000000030e+00 4.827840000000000131e+00 4.832360000000000433e+00 4.803670000000000329e+00 2.353540000000000187e+00 4.766969999999999708e+00 2.402429999999999843e+00 4.901180000000000092e+00 7.047000000000000486e-02 2.405380000000000074e+00 2.412830000000000030e+00 2.427430000000000199e+00 2.395370000000000221e+00 3.635679999999999801e+00 1.208460000000000090e+00 1.205770000000000008e+00 2.356869999999999798e+00 2.348549999999999915e+00 1.399999999999999986e-03 1.261139999999999928e+00 1.285519999999999996e+00 3.606300000000000061e+00 4.714000000000000135e-02 2.482670000000000154e+00 4.795239999999999725e+00
3.576400000000000023e+00 3.565030000000000143e+00 1.202069999999999972e+00 1.200739999999999919e+00 1.214569999999999927e+00 1.203300000000000036e+00 4.838189999999999991e+00 2.428659999999999819e+00 2.406670000000000087e+00 1.145029999999999992e+00 3.559569999999999901e+00 1.197719999999999896e+00 1.187580000000000080e+00 3.638619999999999965e+00 3.616389999999999993e+00 2.525059999999999860e+00 1.394400000000000084e-01 4.804540000000000255e+00 3.682869999999999866e+00 1.280860000000000110e+00 3.605939999999999923e+00 3.629620000000000068e+00 3.624210000000000154e+00 3.598889999999999922e+00 4.723559999999999981e+00 4.692680000000000184e+00 1.399999999999999986e-03 2.355259999999999909e+00 4.763340000000000352e+00 2.401660000000000128e+00 4.898710000000000342e+00 7.166000000000000147e-02 2.406870000000000065e+00 2.412059999999999871e+00 2.430270000000000152e+00 2.396689999999999987e+00 3.632470000000000088e+00 1.210539999999999949e+00 1.206450000000000022e+00 2.355589999999999851e+00 2.346979999999999844e+00 2.000000000000000164e-05 1.262610000000000010e+00 1.284920000000000062e+00 3.604220000000000201e+00 5.102999999999999897e-02 2.478629999999999889e+00 4.794190000000000396e+00
3.577650000000000219e+00 3.566460000000000186e+00 1.201640000000000041e+00 1.197300000000000031e+00 1.215479999999999894e+00 1.202909999999999924e+00 4.835939999999999905e+00 2.431449999999999889e+00 2.405819999999999848e+00 1.147820000000000062e+00 3.561059999999999892e+00 1.195009999999999906e+00 1.186350000000000016e+00 3.639339999999999797e+00 3.621449999999999836e+00 2.526269999999999794e+00 1.390599999999999892e-01 4.804090000000000416e+00 3.685299999999999798e+00 1.281970000000000054e+00 3.605199999999999960e+00 3.630440000000000111e+00 3.622290000000000010e+00 3.597789999999999822e+00 4.722719999999999807e+00 4.690070000000000405e+00 4.570000000000000277e-03 2.356790000000000163e+00 4.759879999999999889e+00 2.400959999999999983e+00 4.896469999999999878e+00 7.291999999999999871e-02 2.408290000000000042e+00 2.411239999999999828e+00 2.432960000000000012e+00 2.398179999999999978e+00 3.629300000000000193e+00 1.212760000000000060e+00 1.206979999999999942e+00 2.458060000000000134e+00 2.482279999999999820e+00 4.804129999999999789e+00 1.264029999999999987e+00 1.284019999999999939e+00 3.601919999999999789e+00 5.448999999999999677e-02 2.474619999999999820e+00 4.793540000000000134e+00