-2.003072024000000084e+01
-2.002639612000000113e+01
-2.001401113000000009e+01
-1.999521782000000059e+01
-1.997243956999999881e+01
-1.994848935999999995e+01
-1.992614953000000000e+01
-1.990782261000000020e+01
-1.989525107000000048e+01
-1.988936298000000136e+01
-1.989021187999999896e+01
-1.989701370999999952e+01
-1.990826541999999932e+01
-1.992193436000000162e+01
-1.993570622000000014e+01
-1.994727003999999937e+01
-1.995461158000000168e+01
-1.995626848999999936e+01
-1.995148780999999971e+01
-1.994025256999999840e+01
-1.171726937000000035e+01
-1.171009296999999982e+01
-1.169538911999999975e+01
-1.167553342999999977e+01
-1.165343833000000018e+01
-1.163203511000000034e+01
-1.161376405000000034e+01
-1.160024169000000072e+01
-1.159212933000000056e+01
-1.158915346999999940e+01
-1.159027576999999987e+01
-1.159401730000000086e+01
-1.159878338999999947e+01
-1.160319712000000081e+01
-1.160633724000000022e+01
-1.160783082999999927e+01
-1.160776807999999960e+01
-1.160649380999999991e+01
-1.160422441000000049e+01
-1.160076251999999997e+01
-1.938930742999999879e+01
-1.938365587999999917e+01
-1.936981360000000052e+01
-1.934943214000000111e+01
-1.932489363999999910e+01
-1.929898517999999896e+01
-1.927444750000000084e+01
-1.925371271999999934e+01
-1.923854771999999969e+01
-1.922996715000000023e+01
-1.922818988999999945e+01
-1.923264617999999970e+01
-1.924208051999999824e+01
-1.925470089999999956e+01
-1.926838906000000051e+01
-1.928097020999999955e+01
-1.929047398999999885e+01
-1.929537078999999977e+01
-1.929481115000000102e+01
-1.928866414000000162e+01
-2.322618877000000026e+01
-2.322042714999999902e+01
-2.320451093999999870e+01
-2.318039425999999992e+01
-2.315116627000000094e+01
-2.312052985000000049e+01
-2.309221622999999823e+01
-2.306948818000000045e+01
-2.305469066999999939e+01
-2.304899685999999903e+01
-2.305229346999999862e+01
-2.306316877000000076e+01
-2.307908134999999916e+01
-2.309665053000000157e+01
-2.311212656000000010e+01
-2.312192768999999970e+01
-2.312336661000000149e+01
-2.311519313000000153e+01
-2.309794404000000156e+01
-2.307384535999999997e+01
-1.875783613999999844e+01
-1.875353772000000063e+01
-1.873954606999999939e+01
-1.871762976999999850e+01
-1.869075418999999982e+01
-1.866253451000000041e+01
-1.863663383999999823e+01
-1.861622812999999965e+01
-1.860353449999999853e+01
-1.859953167000000107e+01
-1.860384249999999895e+01
-1.861482004000000146e+01
-1.862970974999999996e+01
-1.864512562999999901e+01
-1.865754240000000053e+01
-1.866395669999999996e+01
-1.866253882000000175e+01
-1.865309388000000013e+01
-1.863709777000000045e+01
-1.861734931000000159e+01
-1.969401363000000060e+01
-1.969273580999999851e+01
-1.968465451000000144e+01
-1.967078636999999830e+01
-1.965271463999999924e+01
-1.963245749000000018e+01
-1.961215681999999916e+01
-1.959383187999999976e+01
-1.957919979000000055e+01
-1.956950628999999964e+01
-1.956546068000000105e+01
-1.956719172000000029e+01
-1.957422369000000018e+01
-1.958550340000000034e+01
-1.959950037000000123e+01
-1.961430456000000078e+01
-1.962781382000000008e+01
-1.963793672999999984e+01
-1.964288400999999951e+01
-1.964144711000000143e+01
-2.368615555999999955e+01
-2.368230438000000149e+01
-2.367111487000000025e+01
-2.365372879999999967e+01
-2.363193859000000074e+01
-2.360797823000000051e+01
-2.358420525000000012e+01
-2.356285670999999837e+01
-2.354585056000000165e+01
-2.353460949000000113e+01
-2.352995969999999915e+01
-2.353208376999999984e+01
-2.354047062000000068e+01
-2.355395221999999933e+01
-2.357073430999999886e+01
-2.358852093999999866e+01
-2.360462096999999915e+01
-2.361629612999999850e+01
-2.362106400000000050e+01
-2.361711920999999847e+01
-1.685609572999999983e+01
-1.685347177999999957e+01
-1.684078742999999889e+01
-1.681966919999999988e+01
-1.679296658000000164e+01
-1.676421630000000107e+01
-1.673706024999999897e+01
-1.671472636000000023e+01
-1.669959838000000119e+01
-1.669294299999999964e+01
-1.669483384999999842e+01
-1.670413380000000103e+01
-1.671871669000000082e+01
-1.673572838999999846e+01
-1.675198981000000131e+01
-1.676445976999999843e+01
-1.677075444999999831e+01
-1.676951739000000074e+01
-1.676066645999999949e+01
-1.674532123999999911e+01
-1.744431867000000125e+01
-1.743917367999999968e+01
-1.742517292999999867e+01
-1.740439634999999896e+01
-1.737970617999999945e+01
-1.735430801000000045e+01
-1.733121531000000104e+01
-1.731292741000000035e+01
-1.730112242999999950e+01
-1.729654760000000024e+01
-1.729895089000000041e+01
-1.730722068000000036e+01
-1.731948008999999900e+01
-1.733335761000000019e+01
-1.734622364999999888e+01
-1.735559645000000017e+01
-1.735940620999999950e+01
-1.735637666999999951e+01
-1.734612903000000017e+01
-1.732922793999999911e+01
-1.044137783999999947e+01
-1.043457891999999987e+01
-1.041811511000000046e+01
-1.039446354999999933e+01
-1.036702009999999952e+01
-1.033953381999999976e+01
-1.031549835999999942e+01
-1.029761500000000041e+01
-1.028754870000000032e+01
-1.028574633000000027e+01
-1.029148430999999952e+01
-1.030303220000000053e+01
-1.031790887999999917e+01
-1.033325402000000004e+01
-1.034622408000000071e+01
-1.035437021999999985e+01
-1.035599320000000034e+01
-1.035035309000000048e+01
-1.033758489999999952e+01
-1.031855685000000022e+01
-3.189206904999999992e+01
-3.188750475000000151e+01
-3.187439711000000031e+01
-3.185443620999999936e+01
-3.183014418999999862e+01
-3.180448542999999972e+01
-3.178043977999999825e+01
-3.176062605999999988e+01
-3.174699435000000136e+01
-3.174062630999999968e+01
-3.174162516000000167e+01
-3.174910201000000143e+01
-3.176125366999999855e+01
-3.177554436999999865e+01
-3.178900322999999872e+01
-3.179863721999999981e+01
-3.180193685000000059e+01
-3.179738963999999868e+01
-3.178488272999999964e+01
-3.176584466999999989e+01
-2.712772315999999861e+01
-2.712609794000000107e+01
-2.711432210999999981e+01
-2.709391657000000109e+01
-2.706761438999999925e+01
-2.703890314999999944e+01
-2.701146417000000000e+01
-2.698865320000000168e+01
-2.697298990999999901e+01
-2.696588391999999956e+01
-2.696745639999999966e+01
-2.697649537999999936e+01
-2.699062431999999845e+01
-2.700650257999999937e+01
-2.702035210000000021e+01
-2.702852345999999883e+01
-2.702818305999999993e+01
-2.701799816000000121e+01
-2.699854931999999863e+01
-2.697234286999999853e+01
-3.387774119000000184e+01
-3.387453353000000078e+01
-3.386649634999999847e+01
-3.385433057000000190e+01
-3.383914287999999715e+01
-3.382225297000000097e+01
-3.380502780999999857e+01
-3.378879572999999681e+01
-3.377469701999999785e+01
-3.376364845999999886e+01
-3.375624250999999987e+01
-3.375276674999999926e+01
-3.375317333999999647e+01
-3.375708078000000256e+01
-3.376386786999999856e+01
-3.377263234000000125e+01
-3.378232985000000355e+01
-3.379179470999999779e+01
-3.379985786000000303e+01
-3.380545415999999648e+01
-3.502288679000000116e+01
-3.501842712999999918e+01
-3.500723904000000175e+01
-3.499057862000000085e+01
-3.497019444000000021e+01
-3.494810744000000113e+01
-3.492635135999999818e+01
-3.490675622999999916e+01
-3.489078549999999979e+01
-3.487944640999999990e+01
-3.487318565999999720e+01
-3.487190376000000214e+01
-3.487499744000000135e+01
-3.488137787000000145e+01
-3.488961299999999710e+01
-3.489806498000000090e+01
-3.490508651999999756e+01
-3.490922141000000067e+01
-3.490939333000000033e+01
-3.490513256999999925e+01
-3.337189198000000090e+01
-3.336877813000000259e+01
-3.335863649000000208e+01
-3.334264210999999989e+01
-3.332255004999999670e+01
-3.330043852000000015e+01
-3.327844541000000333e+01
-3.325852049000000221e+01
-3.324223389000000140e+01
-3.323065070999999904e+01
-3.322423119999999841e+01
-3.322284361999999902e+01
-3.322578827000000246e+01
-3.323186391000000128e+01
-3.323951637999999775e+01
-3.324698903000000172e+01
-3.325251328000000228e+01
-3.325461583999999959e+01
-3.325230980999999986e+01
-3.324532781999999997e+01
-3.508022302999999908e+01
-3.507959498000000309e+01
-3.507074002000000235e+01
-3.505470625000000240e+01
-3.503327866000000057e+01
-3.500880706000000231e+01
-3.498382285999999652e+01
-3.496078476000000279e+01
-3.494181697999999869e+01
-3.492849727000000115e+01
-3.492175942000000077e+01
-3.492181582999999989e+01
-3.492813188000000224e+01
-3.493944548000000339e+01
-3.495386847999999702e+01
-3.496896407999999923e+01
-3.498203634000000051e+01
-3.499040609000000046e+01
-3.499183398000000267e+01
-3.498493684000000314e+01
-3.329838692999999950e+01
-3.329551169999999871e+01
-3.328713411999999749e+01
-3.327398537999999917e+01
-3.325721501999999674e+01
-3.323822066999999691e+01
-3.321849817999999743e+01
-3.319951228000000043e+01
-3.318256179000000117e+01
-3.316871024000000290e+01
-3.315870383000000032e+01
-3.315297092000000134e+01
-3.315158295999999893e+01
-3.315428586000000166e+01
-3.316051505000000077e+01
-3.316944071000000349e+01
-3.318000014999999792e+01
-3.319092192000000097e+01
-3.320083324000000147e+01
-3.320834182000000112e+01
-3.786333477000000158e+01
-3.786023834000000221e+01
-3.785204341000000028e+01
-3.783937112000000269e+01
-3.782320536999999661e+01
-3.780479385999999664e+01
-3.778551417999999984e+01
-3.776677314999999879e+01
-3.774983411000000189e+01
-3.773578825999999964e+01
-3.772544177000000332e+01
-3.771929362000000197e+01
-3.771749154999999831e+01
-3.771983175999999816e+01
-3.772575788999999702e+01
-3.773440209999999695e+01
-3.774460700000000202e+01
-3.775502623999999940e+01
-3.776420016000000146e+01
-3.777071636000000154e+01
-3.095921716000000146e+01
-3.095438698999999971e+01
-3.094373210999999912e+01
-3.092843769999999992e+01
-3.091007766999999973e+01
-3.089044734000000147e+01
-3.087128247000000059e+01
-3.085414281999999986e+01
-3.084018083999999860e+01
-3.083012735000000148e+01
-3.082422616999999931e+01
-3.082226371999999870e+01
-3.082361726999999973e+01
-3.082733832999999990e+01
-3.083230187999999927e+01
-3.083729143000000050e+01
-3.084120461999999918e+01
-3.084307370999999875e+01
-3.084228206999999955e+01
-3.083848573999999942e+01
-2.701488306999999978e+01
-2.701101656999999889e+01
-2.699951171000000016e+01
-2.698158991000000029e+01
-2.695909585000000064e+01
-2.693423667000000066e+01
-2.690936543999999842e+01
-2.688667283999999924e+01
-2.686797255999999834e+01
-2.685458613000000128e+01
-2.684723224000000030e+01
-2.684597568999999950e+01
-2.685026488999999827e+01
-2.685900778999999972e+01
-2.687063072999999847e+01
-2.688322183000000010e+01
-2.689470680999999885e+01
-2.690307960999999892e+01
-2.690658481999999907e+01
-2.690395480999999833e+01
-4.086382432999999992e+01
-4.086068356999999907e+01
-4.085151554000000118e+01
-4.083710169999999806e+01
-4.081867030000000085e+01
-4.079776448999999872e+01
-4.077608114000000228e+01
-4.075531744999999972e+01
-4.073702696000000145e+01
-4.072250660000000266e+01
-4.071271023999999983e+01
-4.070818844000000070e+01
-4.070904680999999670e+01
-4.071492194999999725e+01
-4.072497487999999777e+01
-4.073790894999999779e+01
-4.075202668000000017e+01
-4.076534196000000065e+01
-4.077576505999999767e+01
-4.078136545000000268e+01
-4.195318172999999717e+01
-4.194989481000000353e+01
-4.193989391000000211e+01
-4.192415053999999941e+01
-4.190411369000000263e+01
-4.188154868000000164e+01
-4.185830722000000037e+01
-4.183616551000000072e+01
-4.181670454999999720e+01
-4.180114959000000141e+01
-4.179033803000000091e+01
-4.178465758000000108e+01
-4.178405219999999787e+01
-4.178800093000000260e+01
-4.179555206999999939e+01
-4.180535335999999802e+01
-4.181573092000000003e+01
-4.182481319000000042e+01
-4.183066723999999681e+01
-4.183153597999999818e+01
-4.107870733000000030e+01
-4.107630388999999838e+01
-4.106808978000000110e+01
-4.105488465999999903e+01
-4.103793732999999833e+01
-4.101878388000000086e+01
-4.099902377000000087e+01
-4.098019004999999737e+01
-4.096360774000000049e+01
-4.095030262000000221e+01
-4.094091900000000095e+01
-4.093571792000000187e+01
-4.093454653999999948e+01
-4.093686078999999722e+01
-4.094180899999999923e+01
-4.094827025000000020e+01
-4.095497015000000118e+01
-4.096061030999999986e+01
-4.096401377000000110e+01
-4.096431785000000048e+01
-4.095270593000000048e+01
-4.095280592999999669e+01
-4.094559720000000169e+01
-4.093190538000000345e+01
-4.091324963999999653e+01
-4.089162008000000270e+01
-4.086925173000000200e+01
-4.084833560999999946e+01
-4.083076175000000063e+01
-4.081798710000000341e+01
-4.081086692000000227e+01
-4.080960901000000263e+01
-4.081373341999999838e+01
-4.082210780999999855e+01
-4.083300203999999667e+01
-4.084426049999999719e+01
-4.085356117999999981e+01
-4.085863572000000232e+01
-4.085770326000000097e+01
-4.084981016999999781e+01
-3.502293893000000224e+01
-3.501735631999999754e+01
-3.500623267000000283e+01
-3.499048872000000188e+01
-3.497145875999999731e+01
-3.495070702999999668e+01
-3.492986772999999801e+01
-3.491051207000000289e+01
-3.489400515999999897e+01
-3.488141702000000066e+01
-3.487346457000000299e+01
-3.487045233999999994e+01
-3.487226325000000315e+01
-3.487835974000000050e+01
-3.488781139999999681e+01
-3.489931911000000042e+01
-3.491129910000000081e+01
-3.492202023000000111e+01
-3.492971699999999657e+01
-3.493287699999999774e+01
-4.282117496000000045e+01
-4.281771496999999727e+01
-4.280877143000000018e+01
-4.279498671000000343e+01
-4.277733701999999738e+01
-4.275702287000000013e+01
-4.273536627000000010e+01
-4.271369391000000348e+01
-4.269325960999999836e+01
-4.267515859000000233e+01
-4.266027327999999841e+01
-4.264925285000000343e+01
-4.264247340000000008e+01
-4.264005395000000220e+01
-4.264183702999999781e+01
-4.264739809999999665e+01
-4.265601484999999826e+01
-4.266670564999999726e+01
-4.267821250000000077e+01
-4.268906141000000076e+01
-3.746446129000000269e+01
-3.746223522999999744e+01
-3.745304396000000224e+01
-3.743785002999999989e+01
-3.741819808000000336e+01
-3.739596304999999887e+01
-3.737315381999999886e+01
-3.735168936000000173e+01
-3.733321458000000348e+01
-3.731896741999999989e+01
-3.730968392999999850e+01
-3.730558795000000316e+01
-3.730635506000000134e+01
-3.731116037000000318e+01
-3.731876709000000147e+01
-3.732757492999999727e+01
-3.733584101000000288e+01
-3.734176407000000353e+01
-3.734379669999999862e+01
-3.734078883000000104e+01
-3.547733721000000173e+01
-3.547735240000000090e+01
-3.547137692999999814e+01
-3.545984666999999746e+01
-3.544367088999999993e+01
-3.542409994999999867e+01
-3.540264980999999977e+01
-3.538089025000000021e+01
-3.536036286000000217e+01
-3.534243010000000140e+01
-3.532819891999999840e+01
-3.531845458000000093e+01
-3.531362682000000319e+01
-3.531378267000000193e+01
-3.531862052000000318e+01
-3.532746601000000197e+01
-3.533929111999999861e+01
-3.535275520999999799e+01
-3.536626705999999842e+01
-3.537805106999999794e+01
-4.320670544000000035e+01
-4.320568190000000186e+01
-4.319943191000000127e+01
-4.318839600999999817e+01
-4.317338579999999837e+01
-4.315544068999999894e+01
-4.313577166000000318e+01
-4.311563015000000121e+01
-4.309625676999999655e+01
-4.307878181000000239e+01
-4.306419221000000164e+01
-4.305324408999999974e+01
-4.304649240999999904e+01
-4.304420276999999828e+01
-4.304636752999999771e+01
-4.305267488999999870e+01
-4.306248321999999717e+01
-4.307477666999999855e+01
-4.308819256999999681e+01
-4.310105403000000024e+01
-4.046260042000000112e+01
-4.045870826000000164e+01
-4.044818761999999879e+01
-4.043196571000000006e+01
-4.041145162000000113e+01
-4.038837045999999731e+01
-4.036461132000000163e+01
-4.034199003999999888e+01
-4.032214528000000087e+01
-4.030641683000000342e+01
-4.029574814000000060e+01
-4.029064395999999704e+01
-4.029114592999999900e+01
-4.029681639999999732e+01
-4.030672799999999967e+01
-4.031950936999999868e+01
-4.033337602000000288e+01
-4.034623169999999703e+01
-4.035585642000000206e+01
-4.036013911999999948e+01
-4.750727338000000088e+01
-4.750450748000000090e+01
-4.749640217000000320e+01
-4.748352936999999940e+01
-4.746678903000000105e+01
-4.744732043999999860e+01
-4.742639675000000210e+01
-4.740532101000000154e+01
-4.738533419000000180e+01
-4.736753843999999702e+01
-4.735284038999999723e+01
-4.734191100000000318e+01
-4.733515660999999852e+01
-4.733269940000000275e+01
-4.733436309999999736e+01
-4.733966260999999776e+01
-4.734780049999999818e+01
-4.735767676999999765e+01
-4.736792255999999668e+01
-4.737697381000000263e+01
-4.516164105000000006e+01
-4.515967031999999648e+01
-4.515200442999999808e+01
-4.513925465999999886e+01
-4.512243700999999874e+01
-4.510283041000000281e+01
-4.508185797000000150e+01
-4.506094677000000104e+01
-4.504142636000000266e+01
-4.502441779000000110e+01
-4.501080034999999668e+01
-4.500112965999999659e+01
-4.499564605999999856e+01
-4.499424436000000327e+01
-4.499650523999999763e+01
-4.500167244000000011e+01
-4.500871844000000266e+01
-4.501637637999999697e+01
-4.502323565999999744e+01
-4.502787380000000184e+01
-4.398278314000000222e+01
-4.398013533999999680e+01
-4.397196078999999713e+01
-4.395889034000000350e+01
-4.394190631000000025e+01
-4.392227036999999967e+01
-4.390128980000000070e+01
-4.388037469999999729e+01
-4.386075962000000317e+01
-4.384356005000000067e+01
-4.382965518000000316e+01
-4.381965738000000243e+01
-4.381390943000000249e+01
-4.381246374999999915e+01
-4.381505571000000288e+01
-4.382110569999999683e+01
-4.382973711000000350e+01
-4.383976298999999699e+01
-4.384968341999999808e+01
-4.385787810000000064e+01
-4.790200107999999801e+01
-4.790121638000000104e+01
-4.789554702000000219e+01
-4.788539615999999910e+01
-4.787144444999999848e+01
-4.785457989999999739e+01
-4.783580289999999735e+01
-4.781617004999999665e+01
-4.779669627999999904e+01
-4.777832689000000244e+01
-4.776187690999999802e+01
-4.774801305999999812e+01
-4.773722068000000007e+01
-4.772981714000000153e+01
-4.772592836999999832e+01
-4.772549056999999806e+01
-4.772825181000000327e+01
-4.773375062000000213e+01
-4.774132128000000108e+01
-4.775008194000000117e+01
-4.663409981000000215e+01
-4.663109941999999819e+01
-4.662388862000000245e+01
-4.661305461999999977e+01
-4.659941213999999832e+01
-4.658390877000000074e+01
-4.656755984000000126e+01
-4.655131647999999700e+01
-4.653605953000000284e+01
-4.652249908000000289e+01
-4.651113875000000064e+01
-4.650230326999999875e+01
-4.649610211000000248e+01
-4.649246080999999720e+01
-4.649114220999999958e+01
-4.649176874999999853e+01
-4.649387913000000339e+01
-4.649697291999999749e+01
-4.650055198999999817e+01
-4.650419930999999707e+01
-4.286468802000000267e+01
-4.286072003000000308e+01
-4.284970638000000065e+01
-4.283298437999999919e+01
-4.281246352000000144e+01
-4.279029243000000093e+01
-4.276865981000000261e+01
-4.274953064999999697e+01
-4.273442005999999793e+01
-4.272433864999999997e+01
-4.271962929000000031e+01
-4.272000745999999793e+01
-4.272452068999999852e+01
-4.273167229999999961e+01
-4.273951618000000252e+01
-4.274587515000000337e+01
-4.274863269000000088e+01
-4.274603666000000146e+01
-4.273708973000000100e+01
-4.272180069000000202e+01
-4.531211964999999964e+01
-4.530667230000000245e+01
-4.529638038000000222e+01
-4.528200095999999775e+01
-4.526453888000000347e+01
-4.524520706999999931e+01
-4.522525619000000319e+01
-4.520595548000000008e+01
-4.518845473999999740e+01
-4.517375581000000295e+01
-4.516264894999999768e+01
-4.515569126999999838e+01
-4.515316029000000242e+01
-4.515508598000000262e+01
-4.516115468999999649e+01
-4.517075257999999849e+01
-4.518292644999999652e+01
-4.519638159000000144e+01
-4.520953504999999950e+01
-4.522061782000000107e+01
-4.883012847999999906e+01
-4.882939101000000193e+01
-4.882356012999999706e+01
-4.881306198000000052e+01
-4.879862636000000009e+01
-4.878116822999999869e+01
-4.876176212000000021e+01
-4.874151882000000313e+01
-4.872151380999999759e+01
-4.870275361000000203e+01
-4.868610677000000209e+01
-4.867230059999999980e+01
-4.866188314000000048e+01
-4.865519994000000281e+01
-4.865241660000000223e+01
-4.865346302999999750e+01
-4.865802262999999783e+01
-4.866553205000000304e+01
-4.867511120999999719e+01
-4.868557083000000318e+01
-4.793565596999999912e+01
-4.793411749999999927e+01
-4.792787969999999831e+01
-4.791735102999999896e+01
-4.790320859999999925e+01
-4.788629647999999861e+01
-4.786758602999999823e+01
-4.784810989999999720e+01
-4.782885507999999675e+01
-4.781075295000000125e+01
-4.779460702000000083e+01
-4.778104919999999822e+01
-4.777057105000000092e+01
-4.776346939999999819e+01
-4.775986521000000096e+01
-4.775971324999999723e+01
-4.776276072999999656e+01
-4.776857889000000057e+01
-4.777657993999999775e+01
-4.778596345999999784e+01
-4.144876310000000075e+01
-4.144481766999999905e+01
-4.143599173999999863e+01
-4.142324608999999924e+01
-4.140782614999999822e+01
-4.139111352999999838e+01
-4.137449236999999869e+01
-4.135918574000000092e+01
-4.134617962000000091e+01
-4.133612644000000103e+01
-4.132935867999999857e+01
-4.132584137999999996e+01
-4.132523892999999759e+01
-4.132695134000000081e+01
-4.133022547000000202e+01
-4.133420646999999803e+01
-4.133806658999999684e+01
-4.134109252999999740e+01
-4.134278718000000197e+01
-4.134291884000000294e+01
-5.226770322000000135e+01
-5.226509817000000169e+01
-5.225745194000000282e+01
-5.224525665000000174e+01
-5.222927630000000221e+01
-5.221047663000000227e+01
-5.218994399999999700e+01
-5.216880814999999671e+01
-5.214817202999999779e+01
-5.212905290999999863e+01
-5.211233919000000014e+01
-5.209875739000000294e+01
-5.208884661999999821e+01
-5.208293703999999735e+01
-5.208112712999999871e+01
-5.208325754999999901e+01
-5.208887980000000084e+01
-5.209722105000000170e+01
-5.210715036999999938e+01
-5.211716126000000315e+01
-5.319412304000000091e+01
-5.319296709000000334e+01
-5.318843984000000091e+01
-5.318075078999999761e+01
-5.317022903000000156e+01
-5.315733073999999903e+01
-5.314260570999999800e+01
-5.312664025000000123e+01
-5.311005288999999863e+01
-5.309347351000000259e+01
-5.307748549000000082e+01
-5.306263368999999841e+01
-5.304941285999999678e+01
-5.303825167000000107e+01
-5.302951072999999838e+01
-5.302346876000000009e+01
-5.302032645999999971e+01
-5.302018381999999974e+01
-5.302303146999999939e+01
-5.302872571000000335e+01
-5.341524031000000150e+01
-5.341449366999999882e+01
-5.340995062999999732e+01
-5.340189063999999775e+01
-5.339075652999999733e+01
-5.337713082999999870e+01
-5.336169696000000329e+01
-5.334520186999999680e+01
-5.332835602000000108e+01
-5.331188293999999672e+01
-5.329643847999999906e+01
-5.328258215000000320e+01
-5.327079854000000125e+01
-5.326146256999999906e+01
-5.325485815999999772e+01
-5.325114758000000137e+01
-5.325033931000000109e+01
-5.325232859999999846e+01
-5.325685466000000190e+01
-5.326347304000000094e+01
-5.372809694000000036e+01
-5.372541054999999943e+01
-5.371877930000000134e+01
-5.370855700999999982e+01
-5.369530246000000062e+01
-5.367969209000000319e+01
-5.366250704000000127e+01
-5.364455673999999874e+01
-5.362665527000000054e+01
-5.360957915000000185e+01
-5.359401222999999703e+01
-5.358055670000000248e+01
-5.356972371999999893e+01
-5.356185982000000223e+01
-5.355720253999999869e+01
-5.355582822000000220e+01
-5.355763364999999965e+01
-5.356234990000000096e+01
-5.356946208000000098e+01
-5.357823118000000306e+01
-5.404232488000000245e+01
-5.404156858999999713e+01
-5.403729506999999899e+01
-5.402972725000000054e+01
-5.401922777000000053e+01
-5.400632394000000147e+01
-5.399159828999999888e+01
-5.397568038000000001e+01
-5.395921927999999923e+01
-5.394285174000000183e+01
-5.392716495999999893e+01
-5.391267122000000001e+01
-5.389982172999999932e+01
-5.388899200000000178e+01
-5.388045637999999826e+01
-5.387438217999999779e+01
-5.387083372000000026e+01
-5.386977087999999725e+01
-5.387103585999999922e+01
-5.387430265999999790e+01
-5.347207071999999783e+01
-5.347024934000000229e+01
-5.346436786000000296e+01
-5.345471591999999816e+01
-5.344181208999999910e+01
-5.342629472000000135e+01
-5.340896010000000160e+01
-5.339065741000000287e+01
-5.337223098999999849e+01
-5.335452738000000039e+01
-5.333831005999999775e+01
-5.332427186000000319e+01
-5.331298521000000079e+01
-5.330488990999999999e+01
-5.330029150000000016e+01
-5.329932091999999955e+01
-5.330193514999999849e+01
-5.330784915000000268e+01
-5.331654748999999782e+01
-5.332720918999999782e+01
-5.329624036999999959e+01
-5.329447196999999647e+01
-5.329028573000000080e+01
-5.328385798000000051e+01
-5.327543328000000145e+01
-5.326534448000000310e+01
-5.325396638000000138e+01
-5.324171031000000198e+01
-5.322899436000000151e+01
-5.321623261999999954e+01
-5.320382090999999747e+01
-5.319215150000000136e+01
-5.318155797000000007e+01
-5.317234845000000121e+01
-5.316477762000000240e+01
-5.315903373999999815e+01
-5.315527279999999877e+01
-5.315356228000000272e+01
-5.315391312999999940e+01
-5.315622919999999851e+01
-5.506268826000000161e+01
-5.506160734000000190e+01
-5.505682041000000027e+01
-5.504856894000000267e+01
-5.503720670999999953e+01
-5.502325866999999704e+01
-5.500727418999999685e+01
-5.498992350999999701e+01
-5.497187299000000138e+01
-5.495376433999999932e+01
-5.493623015000000009e+01
-5.491980915999999979e+01
-5.490497959999999722e+01
-5.489213855999999936e+01
-5.488157936999999720e+01
-5.487348693999999938e+01
-5.486792743000000172e+01
-5.486485050999999658e+01
-5.486403466000000151e+01
-5.486512734000000080e+01
-5.188310529999999687e+01
-5.188122335999999990e+01
-5.187559292000000255e+01
-5.186652509000000322e+01
-5.185447819000000180e+01
-5.184004537999999940e+01
-5.182389204999999777e+01
-5.180674857000000344e+01
-5.178931785000000332e+01
-5.177227802000000167e+01
-5.175625028000000327e+01
-5.174177983999999952e+01
-5.172930399999999906e+01
-5.171917078999999973e+01
-5.171160646999999955e+01
-5.170673278000000295e+01
-5.170455637999999965e+01
-5.170496004999999684e+01
-5.170769731000000036e+01
-5.171238137999999651e+01
-5.284790010999999765e+01
-5.284618088999999941e+01
-5.283996379999999959e+01
-5.282960276000000022e+01
-5.281566471000000007e+01
-5.279888272000000171e+01
-5.278009653000000156e+01
-5.276020731999999924e+01
-5.274010820000000166e+01
-5.272065946000000025e+01
-5.270262564000000083e+01
-5.268669067999999811e+01
-5.267341090000000037e+01
-5.266320833000000334e+01
-5.265636297999999726e+01
-5.265299631999999974e+01
-5.265305149000000284e+01
-5.265626759999999962e+01
-5.266214124999999768e+01
-5.266990660999999818e+01
-5.553859520999999688e+01
-5.553665739000000201e+01
-5.553094985999999977e+01
-5.552175027999999912e+01
-5.550948721999999691e+01
-5.549470508000000279e+01
-5.547802766000000219e+01
-5.546012232999999725e+01
-5.544166406000000080e+01
-5.542330677999999722e+01
-5.540566056000000117e+01
-5.538927434000000005e+01
-5.537462525000000113e+01
-5.536211146000000127e+01
-5.535204535999999820e+01
-5.534464701000000275e+01
-5.534003469999999680e+01
-5.533821059000000275e+01
-5.533904027999999897e+01
-5.534222439999999921e+01
-5.721975955999999996e+01
-5.721902381999999676e+01
-5.721548718999999750e+01
-5.720926208000000202e+01
-5.720056199999999791e+01
-5.718968982999999895e+01
-5.717700351999999953e+01
-5.716289478000000202e+01
-5.714779521999999901e+01
-5.713213994000000184e+01
-5.711637294999999881e+01
-5.710091407000000174e+01
-5.708614919000000043e+01
-5.707245041000000185e+01
-5.706014627999999789e+01
-5.704952483000000285e+01
-5.704083677999999935e+01
-5.703427967999999737e+01
-5.703000406000000311e+01
-5.702809236000000226e+01
-5.432794720999999782e+01
-5.432658452999999810e+01
-5.432213665999999819e+01
-5.431478691000000225e+01
-5.430483999999999867e+01
-5.429268840000000296e+01
-5.427881870000000220e+01
-5.426374461999999710e+01
-5.424800790999999833e+01
-5.423215103999999798e+01
-5.421668301999999784e+01
-5.420207402999999857e+01
-5.418875135999999770e+01
-5.417710835999999830e+01
-5.416743904999999870e+01
-5.415997721000000098e+01
-5.415490478000000252e+01
-5.415230628999999851e+01
-5.415220546999999840e+01
-5.415450157000000075e+01
-5.691953088000000349e+01
-5.691653053999999656e+01
-5.691053297999999927e+01
-5.690177579000000208e+01
-5.689058497999999986e+01
-5.687739312000000069e+01
-5.686267394000000053e+01
-5.684692093000000312e+01
-5.683064327999999676e+01
-5.681433364000000097e+01
-5.679846749000000017e+01
-5.678346591999999760e+01
-5.676970021000000344e+01
-5.675750278000000293e+01
-5.674715082000000166e+01
-5.673883233000000104e+01
-5.673268835999999737e+01
-5.672875034999999855e+01
-5.672696428999999796e+01
-5.672716074000000219e+01
-5.495107903000000249e+01
-5.494871524999999934e+01
-5.494369119000000268e+01
-5.493615798999999811e+01
-5.492641161000000238e+01
-5.491481275000000295e+01
-5.490178980000000308e+01
-5.488782008999999817e+01
-5.487341358999999841e+01
-5.485906359999999893e+01
-5.484526507000000350e+01
-5.483245232000000158e+01
-5.482105349999999788e+01
-5.481142260000000022e+01
-5.480383659999999679e+01
-5.479853759000000224e+01
-5.479564408000000242e+01
-5.479521963999999912e+01
-5.479717617000000018e+01
-5.480130040000000236e+01
-5.485903013000000072e+01
-5.485787144999999754e+01
-5.485363626000000181e+01
-5.484649059000000193e+01
-5.483673627999999667e+01
-5.482475641999999993e+01
-5.481107637000000210e+01
-5.479623019999999656e+01
-5.478078892999999994e+01
-5.476532350000000093e+01
-5.475039675000000017e+01
-5.473650892999999940e+01
-5.472413089999999869e+01
-5.471363974999999868e+01
-5.470536264999999787e+01
-5.469953040000000044e+01
-5.469629453999999669e+01
-5.469567588000000313e+01
-5.469760870999999725e+01
-5.470186722999999773e+01
-5.671957554000000101e+01
-5.671819898999999765e+01
-5.671357076000000319e+01
-5.670589569999999924e+01
-5.669552517999999708e+01
-5.668289870000000263e+01
-5.666852872999999846e+01
-5.665296133999999739e+01
-5.663677204999999759e+01
-5.662051440999999841e+01
-5.660471487000000224e+01
-5.658985181999999980e+01
-5.657634110000000049e+01
-5.656453488999999735e+01
-5.655471951999999902e+01
-5.654706870999999779e+01
-5.654168552000000147e+01
-5.653856367000000205e+01
-5.653756676999999797e+01
-5.653841930000000104e+01
-5.237620436000000268e+01
-5.237452886999999890e+01
-5.236916649999999862e+01
-5.236036521999999849e+01
-5.234854789999999980e+01
-5.233428708999999657e+01
-5.231825683999999654e+01
-5.230118047999999931e+01
-5.228380376999999868e+01
-5.226687117000000171e+01
-5.225103922000000267e+01
-5.223692651999999725e+01
-5.222504716000000258e+01