-7.999998676665526833e-06 -8.999999114064945595e-06 -8.000002320010921226e-06 9.999986964629961390e-07 -8.000005619375630958e-06 2.899999849477635398e-05 1.899999965663822472e-05 6.502217107160279024e-13 5.000001304774550701e-06 2.499999988245261770e-05 -1.700000237507216436e-05 2.299999837228060385e-05 -1.300000177310720347e-05 3.100000143964342264e-05 -1.299999479389571712e-05 -9.000000924292437046e-06 -1.800000785648460126e-05 3.599999584068348720e-05 -9.119190960028067060e-13 1.300000059021048331e-05 -2.999997442419959685e-06 -1.299999881277282479e-05 -1.700000190488324360e-05 3.999995762731697034e-06 3.699999816378819891e-05 -5.000003310500858974e-06 3.300000155719164758e-05 -1.499999491762856160e-05 -3.999987715078003518e-06 -6.900000181703143951e-05 -4.200000271410360452e-05 9.999991076309765241e-06 2.699999908312990691e-05 -2.199999613826378515e-05 7.000010896008541937e-06 -6.500000013363185585e-05 1.700000070218997771e-05 1.100000618360220381e-05 -2.399999666846338881e-05 -4.999999502589555768e-06 3.000001734130775336e-06 -1.099999975315074982e-05 2.999999699264655381e-05 1.899999864511315285e-05 2.000000579817158602e-05 -3.999999860180631205e-06 -1.600000388524460673e-05 1.799999657751947028e-05
1.130089863648928300e-01 2.269997624795325186e-02 1.701270122265180762e-01 6.294698634083184530e-02 4.506797738461090774e-02 1.424670131892549207e-01 -1.280799202260220031e-02 -7.208699600692050624e-02 -2.589501506172934078e-02 -7.015097592630616108e-02 -1.261349681399247524e-01 -1.926060296328414301e-01 6.820100996037282981e-02 -1.854097016777034659e-02 -1.218239989641736465e-01 4.472499158601425662e-02 5.801199403328377580e-02 4.987801448447206493e-02 -2.907999046866660900e-02 -7.489977040027071160e-03 -1.294150034705486840e-01 6.348998110635560577e-02 9.532697481726154498e-02 1.557540231143446363e-01 9.631699234327305292e-02 1.181140154463695413e-01 -3.641197014829972156e-02 9.108200880749227346e-02 -1.443550024990334080e-01 5.251497785485563508e-02 6.510300598370957759e-02 -1.388460114656338285e-01 8.673597715463958469e-02 5.845899613561256897e-02 1.226940241836543821e-01 -9.737097184704114616e-02 -2.506960027729805973e-01 1.416397398666515567e-02 2.264298557069768791e-02 -1.997579945024741399e-01 -8.100002138404353846e-02 2.137797034645753935e-02 -1.302729961038341933e-01 5.290901299403432539e-02 -1.229909985369966874e-01 2.946099316856579803e-02 5.947099761389583461e-02 2.500601372329701658e-02
2.234699731971832304e-01 4.597795375822011366e-02 3.327240243917731211e-01 1.271139726463697828e-01 9.177695517730737051e-02 2.833930267851354490e-01 -2.645798425429495004e-02 -1.420619921649436679e-01 -5.139002976577242837e-02 -1.397099527673432429e-01 -2.489509380318377096e-01 -3.760480585720591962e-01 1.331910196481177200e-01 -3.720094142203026616e-02 -2.395289981722659722e-01 8.926698350764876444e-02 1.142389885725768189e-01 9.710402860520174484e-02 -5.494998136247621068e-02 -1.325195459626961163e-02 -2.548030063806978052e-01 1.249209630693583345e-01 1.845869504169453668e-01 3.066310448936900857e-01 1.873519848722194348e-01 2.321180299578848860e-01 -7.038094146791559758e-02 1.793220171576565547e-01 -2.829080051232423787e-01 1.044239566560120763e-01 1.277860116409700875e-01 -2.707120223549858151e-01 1.694849555163158994e-01 1.133999927118045925e-01 2.397600479404405072e-01 -1.941099450429070450e-01 -4.916710051676700943e-01 2.560194922145232060e-02 4.319097127265449088e-02 -3.958539886872806113e-01 -1.620430415536919244e-01 3.818394093593363570e-02 -2.543069925721020419e-01 1.051950253270542424e-01 -2.398949967681138218e-01 5.719298636220628007e-02 1.178829948900420310e-01 5.097302711951511023e-02
3.298799611292523859e-01 6.931193408463440231e-02 4.792360362898540616e-01 1.920929593439754390e-01 1.391509343268848009e-01 4.177770405676081156e-01 -4.054897688240090975e-02 -2.090259887547580575e-01 -7.488304390772521080e-02 -2.035939316742941541e-01 -3.634909113153810267e-01 -5.397700854933670245e-01 1.903280287520692782e-01 -5.546391492629184489e-02 -3.492299978415379091e-01 1.354569759369654569e-01 1.672159839073466270e-01 1.410070421997085266e-01 -7.642597293852136653e-02 -1.706093324801270100e-02 -3.727020086048735692e-01 1.793749469151406095e-01 2.605909275447452211e-01 4.466910635859642209e-01 2.685159779305478778e-01 3.377700430795165243e-01 -1.015999151085430763e-01 2.615750245526461959e-01 -4.076250075900540448e-01 1.529159377680792686e-01 1.852140165172417863e-01 -3.880660323584311233e-01 2.454339363721653733e-01 1.592399902456317073e-01 3.431770702954546892e-01 -2.877019215490222992e-01 -7.147510071524842967e-01 3.401292642361437857e-02 6.156095760798039468e-02 -5.803669826359465489e-01 -2.388270590014831551e-01 4.621791315874430178e-02 -3.659419899107656526e-01 1.564250359726003237e-01 -3.428019943555169480e-01 8.005897986846553793e-02 1.719329915687057009e-01 7.785003932340708865e-02
4.312879504451365142e-01 9.343091813873956319e-02 6.046140479988748595e-01 2.558839468445814336e-01 1.856519154597115195e-01 5.415610540967468189e-01 -5.506197013370705412e-02 -2.712249859923208106e-01 -9.526805714120635538e-02 -2.576969134421512320e-01 -4.662678890559323053e-01 -6.765621094287748161e-01 2.366670370730814543e-01 -7.390889164698194458e-02 -4.473019982881402123e-01 1.840049691344539662e-01 2.152889804374307214e-01 1.798650549913469732e-01 -9.251796538932710590e-02 -1.923591354026958980e-02 -4.799090101378495343e-01 2.229629334309137512e-01 3.185449069404099887e-01 5.704740779809435169e-01 3.369779716969444894e-01 4.324020544224239648e-01 -1.293298917894876998e-01 3.342040305902703179e-01 -5.121050097874776386e-01 1.958319222006089655e-01 2.354860203457798118e-01 -4.854400410565148927e-01 3.116199206673993527e-01 1.917509891426010527e-01 4.269710905750524477e-01 -3.765709028310399997e-01 -9.129010087291552500e-01 3.949690621780032468e-02 7.765294507945907920e-02 -7.462549765066187613e-01 -3.079470727360389404e-01 4.351888816836949753e-02 -4.606729883905161249e-01 2.051670441897940345e-01 -4.259769912715645757e-01 9.609997387129633195e-02 2.194219874666672732e-01 1.057120497678193105e-01
5.262009415663162493e-01 1.181979069658774389e-01 7.028920593893548396e-01 3.164999356760277438e-01 2.294588994684751970e-01 6.493390668778420416e-01 -6.937496417911470648e-02 -3.275939840513742984e-01 -1.113900692139768583e-01 -2.978028989884399236e-01 -5.526558723798413730e-01 -7.788561291786549878e-01 2.687660444318501485e-01 -9.264287242013841128e-02 -5.309999997694941909e-01 2.353659632489463749e-01 2.574459783790201128e-01 2.127780668122652430e-01 -1.023669588939605662e-01 -1.997289596046096169e-02 -5.735710109591967143e-01 2.524829233622837288e-01 3.537018892951521165e-01 6.730670869248289723e-01 3.896759664631429532e-01 5.123740636623017597e-01 -1.532608724371465891e-01 3.942010349007012415e-01 -5.905110115956645478e-01 2.312479108953881812e-01 2.771740228624089974e-01 -5.577760480827537171e-01 3.655559092990491865e-01 2.066959896750194259e-01 4.853451077668215485e-01 -4.574228903204089480e-01 -1.079928009972318304e+00 4.231088898607390791e-02 9.223193416293977431e-02 -8.866759704435178691e-01 -3.660170817479639904e-01 2.794686710081669204e-02 -5.340349882958604910e-01 2.504060492974697905e-01 -4.840059874093227132e-01 1.033699685691796405e-01 2.582359824643875035e-01 1.343160579032135205e-01
6.151099345235502280e-01 1.442079008429787423e-01 7.728770706120707823e-01 3.729109260095173073e-01 2.696638865313762401e-01 7.397550786615240126e-01 -8.334295911133891843e-02 -3.775299830365075326e-01 -1.226540799974469020e-01 -3.216258885436761306e-01 -6.218788615597412583e-01 -8.442671444333549324e-01 2.856130507917550854e-01 -1.122158575732007946e-01 -5.991020024633013641e-01 2.908099583551007061e-01 2.932819779554359796e-01 2.391660776699987556e-01 -1.060069534595760449e-01 -1.985788067637617865e-02 -6.528500111865375155e-01 2.653759170484174534e-01 3.640998748772112936e-01 7.519880898558903848e-01 4.258399622506364168e-01 5.775830707691333998e-01 -1.735768571246613934e-01 4.401760373307376795e-01 -6.402230129275743309e-01 2.581139042724130972e-01 3.097020239632052863e-01 -6.032610533377507078e-01 4.064849025842436903e-01 2.018429920650480491e-01 5.157061216764600164e-01 -5.302458846805445658e-01 -1.214057010946997028e+00 4.306087484408980398e-02 1.054859250995384828e-01 -9.984899646302544118e-01 -4.107190857221811875e-01 -7.271493722467336140e-04 -5.846789897169537564e-01 2.914000509705506614e-01 -5.146469828221311715e-01 1.010629640547724278e-01 2.870379764286148938e-01 1.639870634112025882e-01
6.967529295910281917e-01 1.713629004228896247e-01 8.106990815610776169e-01 4.230669183230246211e-01 3.043948773802624408e-01 8.081930889387229922e-01 -9.618095512376348410e-02 -4.195739830747873822e-01 -1.280710891506695315e-01 -3.261398827475627815e-01 -6.704748573151608770e-01 -8.678151543039688276e-01 2.849810559884856653e-01 -1.325498477491913740e-01 -6.493130065071497370e-01 3.498529545631564042e-01 3.219989792442792820e-01 2.584230873743141310e-01 -1.029739492566547759e-01 -1.909886818776291781e-02 -7.150030108289296971e-01 2.597209150213766748e-01 3.468178643260451666e-01 8.031470860675397061e-01 4.435069592949703599e-01 6.252580755662411338e-01 -1.902378465319938816e-01 4.697240376444568044e-01 -6.572510136829188276e-01 2.748689029515070104e-01 3.320790234757268755e-01 -6.185290565714873789e-01 4.327029011171449890e-01 1.739109964599600266e-01 5.142461315055804061e-01 -5.924158868859352722e-01 -1.310471011713866041e+00 4.209786411873506218e-02 1.178589182891045667e-01 -1.076011959286414799e+00 -4.391250840775389186e-01 -4.297216028437275681e-02 -6.096069927577087988e-01 3.266710488050268979e-01 -5.145359775948876724e-01 8.802696051521914644e-02 3.040829693665209610e-01 1.941850658693699827e-01
7.702109267670859127e-01 1.995449055927419058e-01 8.165300921500510123e-01 4.652109128777265346e-01 3.323268722858443991e-01 8.525090973281050921e-01 -1.070199523097475069e-01 -4.529549841689983758e-01 -1.272470964622843259e-01 -3.108138816712620045e-01 -6.976658596126342760e-01 -8.494381586009703833e-01 2.667090599658549221e-01 -1.535608431022287834e-01 -6.809200118955696102e-01 4.117469519331862782e-01 3.433639822959234089e-01 2.699660958280046263e-01 -9.363994630415653497e-02 -1.821085870780604285e-02 -7.591090100132386054e-01 2.351899173388323494e-01 3.023878579097329378e-01 8.250380756419164463e-01 4.426229576236510033e-01 6.550480780413086013e-01 -2.032048407319070604e-01 4.820130358439300711e-01 -6.413340138630106990e-01 2.811559069268829703e-01 3.444040214635030184e-01 -6.038500576599656888e-01 4.436229048514327422e-01 1.226060027952255854e-01 4.808211370085550551e-01 -6.428128969851006902e-01 -1.368376012352925608e+00 4.006785680825141610e-02 1.297069139132558946e-01 -1.116938954651307325e+00 -4.498880769697236603e-01 -9.699016521240436117e-02 -6.084939973354442921e-01 3.553310428469468318e-01 -4.837649718799758025e-01 6.484095801996613007e-02 3.088069613879018682e-01 2.246050652065174347e-01
8.343809261173247283e-01 2.284079163603796314e-01 7.898481022351740988e-01 4.978729099363535249e-01 3.523028715893530838e-01 8.703261035010978475e-01 -1.150079508003029743e-01 -4.765479863440446606e-01 -1.196831016524533969e-01 -2.750808854623029154e-01 -7.022058685190837313e-01 -7.885481570402882445e-01 2.306160626327984353e-01 -1.748838438188425048e-01 -6.930540185691819177e-01 4.752819504956103946e-01 3.571669870417268355e-01 2.736151029066620777e-01 -7.816694467424042947e-02 -1.740485250914580381e-02 -7.838530087921007361e-01 1.920079240829760669e-01 2.310918559525660110e-01 8.161110586499515929e-01 4.229989573349519638e-01 6.659300782075932013e-01 -2.126278399386419271e-01 4.762370319373324112e-01 -5.921590134366297997e-01 2.764639162047696774e-01 3.466400179415255467e-01 -5.591380565422312543e-01 4.389189138014854552e-01 4.733801099921892963e-02 4.152131378757408231e-01 -6.801209150614462295e-01 -1.386417012896592471e+00 3.732785302424376089e-02 1.410549121352786262e-01 -1.119124950937494534e+00 -4.418690645425438213e-01 -1.611121637848873522e-01 -5.810320033497941017e-01 3.762600331344042592e-01 -4.223929658765900319e-01 3.176695665587146722e-02 3.006239526197554413e-01 2.547160613253492412e-01
8.873699276079483056e-01 2.572349322895498558e-01 7.320431115453897020e-01 5.194429097027988274e-01 3.632918754824610574e-01 8.599661071443026605e-01 -1.190029507111099588e-01 -4.891219895298530296e-01 -1.052361044005697965e-01 -2.202378939852370765e-01 -6.839338837183389641e-01 -6.873191496793157329e-01 1.777080639018016328e-01 -1.957958498851174456e-01 -6.853460263166613053e-01 5.381349502874605006e-01 3.632959933604211766e-01 2.689711084287260134e-01 -5.706394443264942856e-02 -1.686184986849021544e-02 -7.880510072360799034e-01 1.318499350751526633e-01 1.355088587221366658e-01 7.757380357140560845e-01 3.853059584529730519e-01 6.575990761166986553e-01 -2.184758441661239781e-01 4.523140260690929337e-01 -5.116850124796851196e-01 2.611429303941283919e-01 3.392400130743095654e-01 -4.863500531901486790e-01 4.186459276133975282e-01 -5.054897918133033352e-02 3.195751340275520547e-01 -7.033479405991017730e-01 -1.364484013362635917e+00 3.420985280705923087e-02 1.517459130280433277e-01 -1.081834948394712503e+00 -4.148990474066170386e-01 -2.319131559180991065e-01 -5.282450105448274202e-01 3.883090200294745387e-01 -3.327079598811014671e-01 -9.618043530754953607e-03 2.795959433456422505e-01 2.837660543463594309e-01
9.271579311829462045e-01 2.850809528132653980e-01 6.451141197560633644e-01 5.287619122890242496e-01 3.646818840354807967e-01 8.205651080577255341e-01 -1.179579521590333330e-01 -4.893339936403215407e-01 -8.388610437051588486e-02 -1.483509069961823912e-01 -6.431329047590974568e-01 -5.489481367156062719e-01 1.096270636876897214e-01 -2.153838611789332391e-01 -6.576990348456270841e-01 5.974959513174968873e-01 3.617210010280665911e-01 2.559441121953250353e-01 -3.086294564230283866e-02 -1.659285101455399911e-02 -7.707730053838738327e-01 5.740595000593949615e-02 1.909486641475245661e-02 7.040970076988811721e-01 3.306669609891509376e-01 6.299260718661813252e-01 -2.207538533626133004e-01 4.106310184564556653e-01 -4.029030110733978765e-01 2.357749489330951131e-01 3.228020070574729727e-01 -3.881800476555798962e-01 3.833289457982256843e-01 -1.690309680656254532e-01 1.971071255119344334e-01 -7.118529728295163173e-01 -1.303035013726201674e+00 3.086085622473045548e-02 1.612339165890184223e-01 -1.005582947227691371e+00 -3.696350263545321035e-01 -3.055891417765934648e-01 -4.519170185986158272e-01 3.903050040120384923e-01 -2.179289542467938712e-01 -5.750704252383328358e-02 2.462099338870011311e-01 3.109110444894497838e-01
9.514279367686381272e-01 3.105819771851504041e-01 5.318421264397320547e-01 5.249739177409078472e-01 3.563298972710047252e-01 7.516341061544493662e-01 -1.105999552263734892e-01 -4.762069985610601353e-01 -5.565810128265977902e-02 -6.246192414443235003e-02 -5.804489310573811567e-01 -3.777331184851533408e-01 2.844306190861027248e-02 -2.323478774365028143e-01 -6.105490437581693186e-01 6.499389535834175780e-01 3.525630097732588286e-01 2.344161139949928752e-01 -1.709483455591105454e-04 -1.645585608590366747e-02 -7.315800032492298932e-01 -2.738403158679117086e-02 -1.136171208379301301e-01 6.022409757668045760e-01 2.605219649332292109e-01 5.829560655615775300e-01 -2.193688674203685407e-01 3.520790093894584083e-01 -2.700330093498839457e-01 2.014209710526270736e-01 2.983350001769669024e-01 -2.683980399613380419e-01 3.335249676835623234e-01 -3.050779560790334299e-01 5.220611245409786244e-02 -7.049480106795603662e-01 -1.203632013948529922e+00 2.720386323500600598e-02 1.690509226957890021e-01 -8.921589475800858482e-01 -3.076870023484153394e-01 -3.780321218000403660e-01 -3.544240271670187070e-01 3.815409856895085050e-01 -8.218194927592573085e-02 -1.095840403568892479e-01 2.015529246147481357e-01 3.352780321275185549e-01
9.564469442095636653e-01 3.318700041786051824e-01 3.968301309725370540e-01 5.072819259701624173e-01 3.381829148545066333e-01 6.545251013693154096e-01 -9.609896005852520962e-02 -4.474210040656640963e-01 -2.134009462357375556e-02 3.248805526236137747e-02 -4.979509615643353815e-01 -1.811650957343153845e-01 -6.175294155215434871e-02 -2.451868982706076894e-01 -5.440760524780473562e-01 6.909579571147225208e-01 3.355660192299484978e-01 2.042781134679271804e-01 3.416704731726191713e-02 -1.608486546703310344e-02 -6.688870008181706517e-01 -1.175260104005553946e-01 -2.556731028915236736e-01 4.716189416288842917e-01 1.772209701997066456e-01 5.177160574130418302e-01 -2.143618859759608419e-01 2.782819992870174675e-01 -1.193870075244005541e-01 1.598849956224447644e-01 2.666309927756930764e-01 -1.324680304030816380e-01 2.710829922488251498e-01 -4.531729438327386505e-01 -1.081309046986727446e-01 -6.824950523938002611e-01 -1.067566013900144606e+00 2.305487405246587143e-02 1.735419312234994516e-01 -7.446969496832671620e-01 -2.312899768712487758e-01 -4.430740966433663330e-01 -2.401400355968613676e-01 3.600329660682125010e-01 6.750605434080422795e-02 -1.623580370428802933e-01 1.469279161129833644e-01 3.554240177566492243e-01
9.392599533612305818e-01 3.468760326158345508e-01 2.447731327445028526e-01 4.756289368255466332e-01 3.110669365512959139e-01 5.304060938609137521e-01 -7.316596667084700190e-02 -4.024660099616401143e-01 1.865291579559668483e-02 1.314170318614613364e-01 -3.974179953295980949e-01 3.370393083791980993e-02 -1.574999467489988370e-01 -2.520849230920548245e-01 -4.597620604103120345e-01 7.161589618860328965e-01 3.109820290096494966e-01 1.655841103619594967e-01 7.142904132164544506e-02 -1.504387918284747459e-02 -5.828829980545003897e-01 -2.070539872051558317e-01 -4.002830797655486661e-01 3.149379070306633221e-01 8.309597670758749055e-02 4.349610475750783078e-01 -2.054989087207099441e-01 1.913539885920679251e-01 4.227199418763399191e-02 1.131860214571896311e-01 2.292519852883685705e-01 1.359098091605228341e-02 1.972100184171209081e-01 -6.079199319699101212e-01 -2.767929255730438021e-01 -6.440330962026838968e-01 -8.985090135055017191e-01 1.805288848882168756e-02 1.740589418489629225e-01 -5.676949535723696538e-01 -1.438309512449286454e-01 -4.959620672818073617e-01 -1.131220434131248453e-01 3.253679460583848715e-01 2.247350562435400656e-01 -2.125370327004877102e-01 8.454390886901549940e-02 3.703110020375028899e-01
8.962699639972321330e-01 3.532290609547605320e-01 8.193713104215170906e-02 4.301229500125471894e-01 2.760589617922535322e-01 3.822170838485468014e-01 -4.118697509862776635e-02 -3.400660159829242968e-01 6.323693026805270179e-02 2.279990065588258508e-01 -2.817260310102702170e-01 2.572829602313158048e-01 -2.537339537298448078e-01 -2.512309511564883024e-01 -3.591770668509158826e-01 7.205949678807929137e-01 2.788470386483837271e-01 1.185301043444500768e-01 1.107340336175553219e-01 -1.272389730241939472e-02 -4.736019948989063089e-01 -2.891999629657791004e-01 -5.389200515423711035e-01 1.355748741144917613e-01 -1.873301568788453969e-02 3.363240363035970848e-01 -1.927169351190866908e-01 9.400797783223548143e-02 2.067369955091890033e-01 6.391804712854981529e-02 1.878479781923470815e-01 1.623729936809359120e-01 1.142290448447253193e-01 -7.620769212654767699e-01 -4.448149495576500523e-01 -5.895041398451397185e-01 -7.002080126283036776e-01 1.175090650220005084e-02 1.691769542269227211e-01 -3.670419592975506240e-01 -4.924892709000108088e-02 -5.310330348947219781e-01 2.086595007247948538e-02 2.763059268307118677e-01 3.810350557925007431e-01 -2.562180274545484693e-01 1.700490350237459855e-02 3.784959857504108793e-01
8.243019758201065583e-01 3.483150874261646268e-01 -8.407287486682163413e-02 3.717709650557746714e-01 2.346359896659299671e-01 2.150310716919479892e-01 -4.429852964058064355e-04 -2.594480218330001975e-01 1.107819489265750301e-01 3.153179805164798011e-01 -1.552250669437340858e-01 4.780979911151292949e-01 -3.442069624931850536e-01 -2.408249814788377408e-01 -2.445970710166675000e-01 7.002349750468240819e-01 2.391920476576577803e-01 6.383709514467959811e-02 1.506760241948646162e-01 -8.472919815040948557e-03 -3.417129913196694235e-01 -3.575549388046858068e-01 -6.622590185886267911e-01 -6.180515484493761397e-02 -1.243940072456654611e-01 2.248650239435719678e-01 -1.760769643031767917e-01 -9.782032383534493628e-03 3.647259962398021194e-01 1.483707108331705840e-02 1.437179719669101630e-01 3.055520073251248858e-01 2.558706998281204750e-02 -9.065479125545129468e-01 -6.019759757445655168e-01 -5.195471806856755137e-01 -4.779860111119510480e-01 3.758927987401788386e-03 1.571039679151085555e-01 -1.502699668789942433e-01 4.831709386829098618e-02 -5.428100008136444998e-01 1.546449456106571696e-01 2.118689096775601688e-01 5.266990523022789805e-01 -2.894630214307182259e-01 -5.301009934826698966e-02 3.784539696928630459e-01
7.207139884999301804e-01 3.297211102631846802e-01 -2.454308856385759019e-01 3.014039814788317395e-01 1.885750193167627653e-01 3.356005779778530734e-02 4.904500285964436684e-02 -1.607830272010586092e-01 1.596989717360795813e-01 3.865279548514320984e-01 -2.181110147846842054e-02 6.847620222527424083e-01 -4.231459729472661357e-01 -2.193610129287671406e-01 -1.192440722148356003e-01 6.509809833065035578e-01 1.923870555538402249e-01 2.172082554021388754e-03 1.902900131124322103e-01 -1.668946481835777368e-03 -1.888519872606882477e-01 -4.050009158900449435e-01 -7.610799813673699843e-01 -2.717371775449006766e-01 -2.301269982087074673e-01 1.034020108165737140e-01 -1.555699954603675106e-01 -1.160520414655174387e-01 5.069089961112606124e-01 -3.096090824184697179e-02 9.914996716007844213e-02 4.343700214577227992e-01 -6.572890773451857405e-02 -1.032396906724170504e+00 -7.381210034050795787e-01 -4.339602161127722457e-01 -2.385080088832660650e-01 -6.195047486095972902e-03 1.371149824023068231e-01 7.450702380969861927e-02 1.440441101060853102e-01 -5.270939665446446876e-01 2.812419438740160205e-01 1.317458958495969779e-01 6.523220452328374330e-01 -3.084770148327848904e-01 -1.220420990882088719e-01 3.688209548059840359e-01
5.845090016329956839e-01 2.954481277310348486e-01 -3.937549017348547231e-01 2.209109986289840288e-01 1.397870495080034969e-01 -1.550839573282550288e-01 1.056969896109437729e-01 -4.509203178287130714e-02 2.077509983871956845e-01 4.355089308568760864e-01 1.131388672393603689e-01 8.651770521660264723e-01 -4.841819849114983310e-01 -1.859420442202202872e-01 1.312893016842712340e-02 5.710639925209826107e-01 1.388360618865526475e-01 -6.494893346952426705e-02 2.278350005349586427e-01 8.087023117622304733e-03 -1.791698276302315998e-02 -4.265628954388374638e-01 -8.265879407704871396e-01 -4.875131919134514380e-01 -3.315959889410481920e-01 -2.358900264471506386e-02 -1.315000274123011292e-01 -2.197790488300207790e-01 6.243279950207866191e-01 -7.075789226437045887e-02 5.576796419995776188e-02 5.403750353625804692e-01 -1.553688898585632305e-01 -1.129808904556548255e+00 -8.433280314913309539e-01 -3.337792435003866243e-01 1.003699410261853046e-02 -1.804502047770848924e-02 1.084739971391442959e-01 2.981390129124707467e-01 2.337891202282164904e-01 -4.807929335311556529e-01 3.929099454909110167e-01 3.613888653053580480e-02 7.485010340919125982e-01 -3.102750078342605411e-01 -1.871310952286062701e-01 3.484169418771020932e-01
4.162540147391975420e-01 2.443871382298188066e-01 -5.206649233349022188e-01 1.320100158428414439e-01 9.003707892170161042e-02 -3.434509732209534150e-01 1.675559752774603284e-01 8.580796472229025584e-02 2.525540283880606252e-01 4.571909098044261710e-01 2.441298410629883231e-01 1.007707079425743224e+00 -5.214159980862376198e-01 -1.405180739751546171e-01 1.480959365480558065e-01 4.599460025097842908e-01 7.935206629278324097e-02 -1.359159528029559860e-01 2.617139867050148894e-01 2.099598959045169758e-02 1.673080221032003101e-01 -4.183108785920149342e-01 -8.512648978765233743e-01 -7.019331962016396309e-01 -4.244659798264237560e-01 -1.511450159441518337e-01 -1.044940588848776025e-01 -3.161320539721452216e-01 7.089699928561743469e-01 -1.018718822289502862e-01 1.568896346906844749e-02 6.155860483513851955e-01 -2.389088778140999736e-01 -1.189974906726853909e+00 -9.089100590400029933e-01 -2.200502605345305007e-01 2.588639978093621452e-01 -3.137399174427962789e-02 7.118801160437362996e-02 5.115150006501978375e-01 3.138361231684725916e-01 -4.024699031299255325e-01 4.821179510002691626e-01 -7.430911722488760252e-02 8.065830184888349574e-01 -2.925500006255135621e-01 -2.453350873916445296e-01 3.163299316434444730e-01
-1.648799999999999918e-02 -9.266999999999999196e-03 -2.216309999999999947e-01 -2.462380000000000124e-01 -1.924800000000000122e-01 -4.304000000000000187e-02 -1.627450000000000008e-01 -2.594569999999999932e-01 -9.524799999999999933e-02 6.380900000000000460e-02 3.056610000000000160e-01 -1.816619999999999902e-01 4.320780000000000176e-01 -1.699829999999999952e-01 -9.741299999999999959e-02 1.652260000000000117e-01 -2.904669999999999752e-01 1.885699999999999876e-01 1.112709999999999949e-01 6.139200000000000212e-02 -1.956160000000000121e-01 -4.894200000000000217e-01 -3.789999999999999966e-03 1.632339999999999902e-01 5.184400000000000119e-02 3.000689999999999746e-01 2.100670000000000037e-01 -4.112099999999999783e-02 8.222999999999999407e-03 -2.427699999999999997e-02 4.716599999999999959e-02 1.758899999999999908e-01 3.027799999999999936e-02 4.679099999999999926e-02 -1.072970000000000035e-01 3.995460000000000123e-01 -4.563099999999999795e-02 2.060140000000000027e-01 -2.033470000000000000e-01 3.177820000000000089e-01 3.051440000000000263e-01 -7.656300000000000605e-02 4.399900000000000339e-02 -2.427189999999999903e-01 -3.092790000000000261e-01 -2.779190000000000271e-01 -8.697499999999999676e-02 4.558329999999999882e-01
-8.493699999999999861e-02 -2.049269999999999980e-01 -3.236459999999999892e-01 -9.404700000000000559e-02 -2.963839999999999808e-01 1.060429999999999984e-01 4.477400000000000130e-02 -2.888319999999999776e-01 -1.492840000000000000e-01 -6.992199999999999804e-02 2.499790000000000068e-01 -1.789000000000000009e-03 4.879999999999999893e-01 -1.101179999999999937e-01 -3.740609999999999769e-01 2.294630000000000003e-01 -1.968840000000000034e-01 1.399400000000000088e-01 2.036000000000000049e-03 -1.668499999999999844e-02 -1.541690000000000005e-01 -5.439619999999999456e-01 2.070400000000000018e-02 3.743270000000000208e-01 4.988399999999999779e-02 5.230989999999999807e-01 7.299899999999999445e-02 -1.783339999999999925e-01 1.440899999999999959e-01 5.463799999999999907e-02 2.238009999999999999e-01 1.576180000000000081e-01 -4.513299999999999951e-02 -1.068900000000000058e-02 -1.841200000000000059e-01 3.568020000000000080e-01 1.673300000000000134e-02 2.168529999999999902e-01 -2.390239999999999865e-01 4.593940000000000246e-01 3.609879999999999756e-01 -4.235499999999999682e-02 -2.059899999999999926e-02 -3.630599999999999938e-01 -3.431170000000000053e-01 -5.111740000000000173e-01 -1.234900000000000060e-02 5.672859999999999570e-01
-1.523420000000000052e-01 -3.894739999999999869e-01 -4.025029999999999997e-01 7.179599999999999871e-02 -3.843300000000000050e-01 2.431439999999999990e-01 2.501459999999999795e-01 -3.053899999999999948e-01 -1.971120000000000094e-01 -2.007790000000000130e-01 1.817950000000000121e-01 1.771399999999999919e-01 5.199070000000000080e-01 -5.580899999999999750e-02 -6.329620000000000246e-01 2.870619999999999838e-01 -9.080699999999999883e-02 8.769599999999999618e-02 -1.075689999999999980e-01 -9.585000000000000464e-02 -1.082950000000000024e-01 -5.713059999999999805e-01 5.391800000000000065e-02 5.670439999999999925e-01 4.680600000000000038e-02 7.285070000000000157e-01 -7.163899999999999435e-02 -2.996779999999999999e-01 2.776910000000000212e-01 1.251800000000000135e-01 3.806019999999999959e-01 1.240050000000000041e-01 -1.150550000000000045e-01 -6.684400000000000064e-02 -2.562450000000000006e-01 2.977090000000000014e-01 6.896599999999999953e-02 2.154480000000000006e-01 -2.604270000000000196e-01 5.732639999999999958e-01 3.943780000000000063e-01 -2.236000000000000140e-03 -8.109700000000000242e-02 -4.674749999999999739e-01 -3.579769999999999897e-01 -7.186190000000000078e-01 6.950699999999999934e-02 6.499120000000000452e-01
-2.170660000000000089e-01 -5.529899999999999816e-01 -4.521809999999999996e-01 2.488150000000000084e-01 -4.530230000000000090e-01 3.582569999999999921e-01 4.429500000000000104e-01 -3.128170000000000117e-01 -2.314749999999999863e-01 -3.246339999999999781e-01 1.054100000000000037e-01 3.426259999999999861e-01 5.261130000000000528e-01 -1.419100000000000049e-02 -8.628749999999999476e-01 3.323789999999999800e-01 2.231299999999999950e-02 3.850399999999999656e-02 -2.128770000000000107e-01 -1.714189999999999880e-01 -6.562600000000000378e-02 -5.688579999999999748e-01 9.704999999999999738e-02 7.295169999999999710e-01 4.577200000000000019e-02 9.111829999999999652e-01 -2.189069999999999905e-01 -3.959460000000000202e-01 4.054229999999999778e-01 1.829919999999999880e-01 5.063010000000000010e-01 7.262499999999999512e-02 -1.779429999999999901e-01 -1.165049999999999975e-01 -3.231640000000000068e-01 2.267740000000000034e-01 1.112680000000000058e-01 1.979940000000000033e-01 -2.647280000000000189e-01 6.485710000000000086e-01 4.039719999999999978e-01 4.287400000000000239e-02 -1.373900000000000121e-01 -5.481420000000000181e-01 -3.482560000000000100e-01 -8.886209999999999942e-01 1.596980000000000066e-01 6.999360000000000026e-01