1.892150217441101461e+02 6.476165883724585299e-05 5.551000954035553437e-05 6.476165883724585299e-05 1.892150181857455209e+02 1.537200361288912592e-04 5.551000954035552760e-05 1.537200361288912592e-04 1.892150423825345342e+02
1.892363354534107316e+02 -7.963558220587676302e-04 1.791976671347094265e-03 -7.963558220587677386e-04 1.892400624525702426e+02 -2.191931952098227126e-04 1.791976671347094048e-03 -2.191931952098227126e-04 1.892396361643595526e+02
1.891945769798222727e+02 -3.844426384593087592e-03 5.504029635669001504e-03 -3.844426384593087592e-03 1.892095447563072241e+02 -1.612636367583809285e-03 5.504029635669000636e-03 -1.612636367583809502e-03 1.892073997926800359e+02
1.893060453522660396e+02 -7.186416699786931685e-03 1.347683132520089734e-02 -7.186416699786932552e-03 1.893383023628042849e+02 -3.000385894235081327e-03 1.347683132520089734e-02 -3.000385894235081327e-03 1.893346166411040485e+02
1.893439650946420443e+02 -1.170052286785949226e-02 2.230363262574546965e-02 -1.170052286785949226e-02 1.893991498753470353e+02 -4.992340549752501827e-03 2.230363262574546965e-02 -4.992340549752500960e-03 1.893939098737477593e+02
1.893827423955595179e+02 -1.645944279647454725e-02 3.120800522910300093e-02 -1.645944279647455072e-02 1.894651747639714756e+02 -7.129475381410903430e-03 3.120800522910300440e-02 -7.129475381410902562e-03 1.894590722225541413e+02
1.894121157312382024e+02 -2.078851608678999527e-02 3.934235410194040355e-02 -2.078851608678999180e-02 1.895247782829452774e+02 -9.092963843452338268e-03 3.934235410194041049e-02 -9.092963843452338268e-03 1.895193183769768837e+02
1.894297038645521525e+02 -2.410915733268368874e-02 4.575375751685492598e-02 -2.410915733268368874e-02 1.895741772114676564e+02 -1.057536605252483615e-02 4.575375751685492598e-02 -1.057536605252483615e-02 1.895715653963711134e+02
1.894300198444811372e+02 -2.618793950601099735e-02 4.934767200499230733e-02 -2.618793950601100082e-02 1.896066818815029933e+02 -1.149839882841027262e-02 4.934767200499230733e-02 -1.149839882841027436e-02 1.896095869076677616e+02
1.894217566811302902e+02 -2.662632903572979479e-02 4.976470592905218177e-02 -2.662632903572979479e-02 1.896298167462474566e+02 -1.163504056355835550e-02 4.976470592905218177e-02 -1.163504056355835724e-02 1.896414275925642414e+02
1.893859441839224758e+02 -2.528555079160602417e-02 4.684758098375337021e-02 -2.528555079160603111e-02 1.896236843132405454e+02 -1.085363295653192159e-02 4.684758098375336327e-02 -1.085363295653192332e-02 1.896474696437158229e+02
1.893472195462222487e+02 -2.216062312674894549e-02 4.091370058810910731e-02 -2.216062312674894896e-02 1.896123431907264205e+02 -9.036039318091703201e-03 4.091370058810910731e-02 -9.036039318091701467e-03 1.896519211195330570e+02
1.892875391675681840e+02 -1.753550127434341105e-02 3.288253821405193178e-02 -1.753550127434341105e-02 1.895775832481915018e+02 -6.064122886882150967e-03 3.288253821405193872e-02 -6.064122886882150967e-03 1.896365170914259295e+02
1.892271926687147356e+02 -1.167136718409642060e-02 2.375256230376517758e-02 -1.167136718409642060e-02 1.895398834097152019e+02 -1.697340245830132382e-03 2.375256230376517758e-02 -1.697340245830132382e-03 1.896219079955472182e+02
1.891795024522850497e+02 -5.257826398575858248e-03 1.527091476473601411e-02 -5.257826398575858248e-03 1.895131717063547114e+02 4.132628905442527548e-03 1.527091476473601411e-02 4.132628905442527548e-03 1.896210895798409695e+02
1.891086766590417767e+02 1.159983734651297976e-03 9.556227482567883694e-03 1.159983734651297976e-03 1.894632240808684571e+02 1.167273314924406613e-02 9.556227482567883694e-03 1.167273314924406440e-02 1.895995666425888828e+02
1.890874497721625289e+02 6.781437474033145604e-03 8.629633929292996122e-03 6.781437474033144737e-03 1.894648295985131767e+02 2.095642101281071368e-02 8.629633929292996122e-03 2.095642101281071368e-02 1.896317816677512553e+02
1.890605601517610808e+02 1.107705411145606944e-02 1.437918595244320162e-02 1.107705411145606771e-02 1.894654145850539635e+02 3.193174116305291799e-02 1.437918595244320336e-02 3.193174116305291799e-02 1.896640514928407981e+02
1.890343309572119210e+02 1.411728811133006189e-02 2.862105712342328037e-02 1.411728811133006189e-02 1.894735731289544844e+02 4.456239876177436193e-02 2.862105712342328037e-02 4.456239876177435499e-02 1.897049282181877743e+02
1.890361044271704429e+02 1.679243420879029600e-02 5.250316602085637607e-02 1.679243420879028906e-02 1.895194080249883655e+02 5.863062393684655149e-02 5.250316602085637607e-02 5.863062393684654455e-02 1.897844491650523935e+02
2.151121505913910426e+02 1.178560132680519956e+01 -1.083184877906427523e+01 1.178560132680519956e+01 2.164163582577951388e+02 -1.254692468647188441e+01 -1.083184877906427523e+01 -1.254692468647188441e+01 2.162990369613460757e+02
2.151548069066652999e+02 1.177959978751887249e+01 -1.084116358972573657e+01 1.177959978751887249e+01 2.164603864317131752e+02 -1.254107375042988437e+01 -1.084116358972573657e+01 -1.254107375042988437e+01 2.163411230379725225e+02
2.152321094982963814e+02 1.177269120596559482e+01 -1.084977124969907436e+01 1.177269120596559482e+01 2.165442519019958070e+02 -1.253953212085616187e+01 -1.084977124969907436e+01 -1.253953212085616187e+01 2.164223235153907865e+02
2.152305685532828932e+02 1.176569157790551934e+01 -1.085445911795877016e+01 1.176569157790551934e+01 2.165529704607217809e+02 -1.254183292769331892e+01 -1.085445911795877016e+01 -1.254183292769331892e+01 2.164290493193702787e+02
2.152732104927929129e+02 1.175859953421824500e+01 -1.085387039618550276e+01 1.175859953421824500e+01 2.166083370052568284e+02 -1.254731009386531326e+01 -1.085387039618550276e+01 -1.254731009386531326e+01 2.164833164602217437e+02
2.153106066474790339e+02 1.175190316632742338e+01 -1.084710214947352469e+01 1.175190316632742338e+01 2.166604327211491920e+02 -1.255480055158984598e+01 -1.084710214947352469e+01 -1.255480055158984598e+01 2.165348884875600106e+02
2.153383525570050097e+02 1.174626102114686965e+01 -1.083303169909242314e+01 1.174626102114686965e+01 2.167050414021180700e+02 -1.256335413130726941e+01 -1.083303169909242314e+01 -1.256335413130726941e+01 2.165788167156886459e+02
2.153537134033659015e+02 1.174169226636223229e+01 -1.081207662676508896e+01 1.174169226636223229e+01 2.167401921993433973e+02 -1.257178859754963440e+01 -1.081207662676508896e+01 -1.257178859754963440e+01 2.166115756595700077e+02
2.153568178838795859e+02 1.173843033700220673e+01 -1.078546982541438659e+01 1.173843033700220673e+01 2.167671296432714314e+02 -1.257846579775481466e+01 -1.078546982541438659e+01 -1.257846579775481466e+01 2.166327573213240214e+02
2.153415145405756164e+02 1.173760475739922882e+01 -1.075443734236115212e+01 1.173760475739922882e+01 2.167814725486126974e+02 -1.258234656953697339e+01 -1.075443734236115212e+01 -1.258234656953697339e+01 2.166354606495596045e+02
2.153235345668838647e+02 1.173770470318864234e+01 -1.072205011466919622e+01 1.173770470318864234e+01 2.167999495130106880e+02 -1.258223087886292468e+01 -1.072205011466919622e+01 -1.258223087886292468e+01 2.166348568674619059e+02
2.152930113966205568e+02 1.173864186610446048e+01 -1.069112442300739296e+01 1.173864186610446048e+01 2.168138474542210190e+02 -1.257710557663448547e+01 -1.069112442300739296e+01 -1.257710557663448547e+01 2.166205386062878802e+02
2.152591044452813094e+02 1.173952426420416195e+01 -1.066385086002045135e+01 1.173952426420416195e+01 2.168328118254824801e+02 -1.256668657036804504e+01 -1.066385086002045135e+01 -1.256668657036804504e+01 2.166014558061115736e+02
2.152202583920884535e+02 1.173858299392713533e+01 -1.064299094156112524e+01 1.173858299392713533e+01 2.168544138072002170e+02 -1.255054600993768332e+01 -1.064299094156112524e+01 -1.255054600993768332e+01 2.165756650005210417e+02
2.151883955375108428e+02 1.173477341640593075e+01 -1.063059697911343271e+01 1.173477341640593075e+01 2.168890299629081539e+02 -1.252883518314792433e+01 -1.063059697911343271e+01 -1.252883518314792433e+01 2.165556909029624251e+02
2.151686404992166786e+02 1.172606238784216970e+01 -1.062778206756496857e+01 1.172606238784216970e+01 2.169396422368439517e+02 -1.250216129489747630e+01 -1.062778206756496857e+01 -1.250216129489747630e+01 2.165474823415865444e+02
2.151332377838372452e+02 1.171092881546817566e+01 -1.063519653910713991e+01 1.171092881546817566e+01 2.169756377813578752e+02 -1.247177024475302254e+01 -1.063519653910713991e+01 -1.247177024475302254e+01 2.165245283534709131e+02
2.151183164251256983e+02 1.168878534663108404e+01 -1.065207847823569765e+01 1.168878534663108404e+01 2.170311542445770385e+02 -1.243949939229531942e+01 -1.065207847823569765e+01 -1.243949939229531942e+01 2.165249890624864975e+02
2.151120787125698541e+02 1.165866401320601042e+01 -1.067901318392290833e+01 1.165866401320601042e+01 2.170927708237515503e+02 -1.240729083481595119e+01 -1.067901318392290833e+01 -1.240729083481595119e+01 2.165398994682348359e+02
2.150914022562445211e+02 1.162102963156975655e+01 -1.071266616342738587e+01 1.162102963156975655e+01 2.171368209035960319e+02 -1.237795263826136427e+01 -1.071266616342738587e+01 -1.237795263826136427e+01 2.165472317925528216e+02
1.904726943363762928e+02 7.998489218776112075e+00 -1.032631469635396471e+01 7.998489218776112075e+00 1.905957642413841313e+02 8.637880081889662165e+00 -1.032631469635396471e+01 8.637880081889662165e+00 1.915649940193239331e+02
1.904745121827491801e+02 8.002550591731953489e+00 -1.032538303232157517e+01 8.002550591731953489e+00 1.905951118633660144e+02 8.632653951230475187e+00 -1.032538303232157517e+01 8.632653951230475187e+00 1.915676745965399164e+02
1.905212041140383690e+02 8.005947505595280234e+00 -1.031773286961472991e+01 8.005947505595280234e+00 1.906338885589627807e+02 8.633710689915572445e+00 -1.031773286961472991e+01 8.633710689915572445e+00 1.916147126150783606e+02
1.905622278894752526e+02 8.006198365552133822e+00 -1.030363780903622484e+01 8.006198365552133822e+00 1.906623231442137012e+02 8.640572029528634346e+00 -1.030363780903622484e+01 8.640572029528634346e+00 1.916540869685326527e+02
1.906256179975524390e+02 8.002145520413522561e+00 -1.028475722168875706e+01 8.002145520413522561e+00 1.907101968888406702e+02 8.652304884734396850e+00 -1.028475722168875706e+01 8.652304884734396850e+00 1.917132316449321081e+02
1.906928434914288175e+02 7.992352743627610501e+00 -1.026308732745560803e+01 7.992352743627610501e+00 1.907612266364942570e+02 8.667253437687348239e+00 -1.026308732745560803e+01 8.667253437687348239e+00 1.917729853496120711e+02
1.907539787025000919e+02 7.976230194502648807e+00 -1.024101449385833185e+01 7.976230194502648807e+00 1.908081211034426019e+02 8.683404412869743183e+00 -1.024101449385833185e+01 8.683404412869743183e+00 1.918233470849159232e+02
1.908099958019303699e+02 7.953725995483818423e+00 -1.022063087872405873e+01 7.953725995483818423e+00 1.908537818794983707e+02 8.698432558783508739e+00 -1.022063087872405873e+01 8.698432558783508739e+00 1.918654005942833578e+02
1.908498079166691355e+02 7.925955158673957612e+00 -1.020384102790083780e+01 7.925955158673957612e+00 1.908893890696912763e+02 8.710451095866481808e+00 -1.020384102790083780e+01 8.710451095866481808e+00 1.918885152428855747e+02
1.908688739840413575e+02 7.894616851656167889e+00 -1.019185589143535253e+01 7.894616851656167889e+00 1.909118435231096100e+02 8.717699740512076190e+00 -1.019185589143535253e+01 8.717699740512076190e+00 1.918891292457261386e+02
1.908735976841354329e+02 7.862178456215692890e+00 -1.018553820017071132e+01 7.862178456215692890e+00 1.909282439369459894e+02 8.718821859129270990e+00 -1.018553820017071132e+01 8.718821859129270990e+00 1.918742176466478782e+02
1.908579725910155389e+02 7.832006328204121459e+00 -1.018559576293701241e+01 7.832006328204121459e+00 1.909320160747674322e+02 8.713787604357762007e+00 -1.018559576293701241e+01 8.713787604357762007e+00 1.918382679224628760e+02
1.908257438377486324e+02 7.806462672994191720e+00 -1.019105214466141440e+01 7.806462672994191720e+00 1.909250488480904266e+02 8.702663777432515957e+00 -1.019105214466141440e+01 8.702663777432515957e+00 1.917856100723698205e+02
1.907831694208787212e+02 7.789122067308194453e+00 -1.020165861734136570e+01 7.789122067308194453e+00 1.909106332837143611e+02 8.686554020033399937e+00 -1.020165861734136570e+01 8.686554020033399937e+00 1.917229753867689510e+02
1.907789339383211029e+02 7.782036872492843038e+00 -1.021576362703997276e+01 7.782036872492843038e+00 1.909342425457159322e+02 8.668105508758923605e+00 -1.021576362703997276e+01 8.668105508758923605e+00 1.916977763975053790e+02
1.907617319096651443e+02 7.785945455389978065e+00 -1.023270058271040917e+01 7.785945455389978065e+00 1.909395660356217945e+02 8.648548381244532735e+00 -1.023270058271040917e+01 8.648548381244532735e+00 1.916577098695525763e+02
1.907389448713748266e+02 7.800605483859976097e+00 -1.024991327113795592e+01 7.800605483859976097e+00 1.909299658453750226e+02 8.631191430575510637e+00 -1.024991327113795592e+01 8.631191430575510637e+00 1.916087630412574754e+02
1.907377509769625874e+02 7.823156585873571878e+00 -1.026587734499272386e+01 7.823156585873571878e+00 1.909300887880734194e+02 8.619428728009443930e+00 -1.026587734499272386e+01 8.619428728009443930e+00 1.915752991757950667e+02
1.907635248832377499e+02 7.849237493568998580e+00 -1.027933210862753555e+01 7.849237493568998580e+00 1.909435179682565433e+02 8.613757018899983464e+00 -1.027933210862753555e+01 8.613757018899983464e+00 1.915596421033606021e+02
1.907618697760436532e+02 7.873381876101753107e+00 -1.028883422897618516e+01 7.873381876101753107e+00 1.909186679088479934e+02 8.614772539801801798e+00 -1.028883422897618516e+01 8.614772539801801798e+00 1.915049880333842509e+02
1.776261801094248085e+02 6.874312001024804886e+00 -4.894689122416396643e+00 6.874312001024804886e+00 1.780272051230949160e+02 -5.392073134576903293e+00 -4.894689122416396643e+00 -5.392073134576903293e+00 1.788159054534405357e+02
1.776525251251592863e+02 6.873894573878130743e+00 -4.890788062814747761e+00 6.873894573878130743e+00 1.780561887711923248e+02 -5.392813053182380578e+00 -4.890788062814747761e+00 -5.392813053182380578e+00 1.788365760688999160e+02
1.777090017136445681e+02 6.873723544699978483e+00 -4.879081260510260698e+00 6.873723544699978483e+00 1.781164475684944364e+02 -5.388499639333408808e+00 -4.879081260510260698e+00 -5.388499639333408808e+00 1.788841504437224330e+02
1.777745305286734379e+02 6.873060444284687875e+00 -4.859691914487198616e+00 6.873060444284687875e+00 1.781863709637619024e+02 -5.378639372393031692e+00 -4.859691914487198616e+00 -5.378639372393031692e+00 1.789379325979518853e+02
1.778462953864056431e+02 6.871675542761606081e+00 -4.834618022390321457e+00 6.871675542761606081e+00 1.782625115595351701e+02 -5.364126532047008844e+00 -4.834618022390321457e+00 -5.364126532047008844e+00 1.789946961676004946e+02
1.779335072226645877e+02 6.869184749179797045e+00 -4.806524305779220185e+00 6.869184749179797045e+00 1.783539773842506406e+02 -5.346120638147213278e+00 -4.806524305779220185e+00 -5.346120638147213278e+00 1.790642934479096198e+02
1.780055728308583980e+02 6.865589512939079597e+00 -4.777487029888654924e+00 6.865589512939079597e+00 1.784295947466906966e+02 -5.325777587045984696e+00 -4.777487029888654924e+00 -5.325777587045984696e+00 1.791161160135894477e+02
1.780565301048487186e+02 6.861096373513065672e+00 -4.750560080128501284e+00 6.861096373513065672e+00 1.784832305115388920e+02 -5.304799698825855003e+00 -4.750560080128501284e+00 -5.304799698825855003e+00 1.791449924061005561e+02
1.780884480628712936e+02 6.856101017051210000e+00 -4.729336518639756015e+00 6.856101017051210000e+00 1.785174037356733550e+02 -5.285623414575574053e+00 -4.729336518639756015e+00 -5.285623414575574053e+00 1.791535735777043215e+02
1.781042131846573398e+02 6.851578164928992187e+00 -4.715523013704394195e+00 6.851578164928992187e+00 1.785348994408383021e+02 -5.269742340804339342e+00 -4.715523013704394195e+00 -5.269742340804339342e+00 1.791461033710586150e+02
1.780987960528493659e+02 6.848535874717636140e+00 -4.710958853687453818e+00 6.848535874717636140e+00 1.785309077937482414e+02 -5.259100122663854293e+00 -4.710958853687453818e+00 -5.259100122663854293e+00 1.791192046845948482e+02
1.780664113880864363e+02 6.848101054773183094e+00 -4.716776744544233679e+00 6.848101054773183094e+00 1.785001964610715106e+02 -5.255670842701936074e+00 -4.716776744544233679e+00 -5.255670842701936074e+00 1.790689677623124965e+02
1.780149345042624702e+02 6.851449168345471463e+00 -4.733133221454735917e+00 6.851449168345471463e+00 1.784506081452063029e+02 -5.260739393854442447e+00 -4.733133221454735917e+00 -5.260739393854442447e+00 1.790051644577631862e+02
1.779763964125855864e+02 6.859962218157951597e+00 -4.759157919830149908e+00 6.859962218157951597e+00 1.784139347063912169e+02 -5.275637774551213077e+00 -4.759157919830149908e+00 -5.275637774551213077e+00 1.789608135481288969e+02
1.779526965515131849e+02 6.873501061828400260e+00 -4.792716598443117704e+00 6.873501061828400260e+00 1.783919052786054635e+02 -5.300019578236502049e+00 -4.792716598443117704e+00 -5.300019578236502049e+00 1.789400132113861162e+02
1.779498825417726664e+02 6.892069322856353430e+00 -4.830605359002928978e+00 6.892069322856353430e+00 1.783889818391789106e+02 -5.332999221623440533e+00 -4.830605359002928978e+00 -5.332999221623440533e+00 1.789487059867756216e+02
1.779180566206383389e+02 6.914600967677996479e+00 -4.868467305666165146e+00 6.914600967677996479e+00 1.783532439879443245e+02 -5.372038805636235814e+00 -4.868467305666165146e+00 -5.372038805636235814e+00 1.789354091928742321e+02
1.779458488620879564e+02 6.938779130689299635e+00 -4.902322386541268173e+00 6.938779130689299635e+00 1.783720506752418089e+02 -5.413765576905752219e+00 -4.902322386541268173e+00 -5.413765576905752219e+00 1.789869302833925531e+02
1.779742411550609233e+02 6.961771684652060976e+00 -4.927407149136755038e+00 6.961771684652060976e+00 1.783848517744065134e+02 -5.453400139542541325e+00 -4.927407149136755038e+00 -5.453400139542541325e+00 1.790400152763110952e+02
1.780593470133888729e+02 6.977343311562827388e+00 -4.937044933205554820e+00 6.977343311562827388e+00 1.784461142810803835e+02 -5.481068457307986641e+00 -4.937044933205554820e+00 -5.481068457307986641e+00 1.791488195463116426e+02
1.928239760743257705e+02 5.511650306041926406e+00 -8.724097731525310095e+00 5.511650306041926406e+00 1.929817358905557398e+02 8.985636318437691727e+00 -8.724097731525310095e+00 8.985636318437691727e+00 1.935522440878502550e+02
1.928193623157999923e+02 5.507692824047268232e+00 -8.723062697772862251e+00 5.507692824047268232e+00 1.929708050279443796e+02 8.981591757680003951e+00 -8.723062697772862251e+00 8.981591757680003951e+00 1.935419567585364291e+02
1.928558157514684979e+02 5.507070529472438913e+00 -8.720597590025921164e+00 5.507070529472438913e+00 1.929955828297925109e+02 8.978243119069139411e+00 -8.720597590025921164e+00 8.978243119069139411e+00 1.935738721871234134e+02
1.929164261103251192e+02 5.509238295101712701e+00 -8.715939938139902310e+00 5.509238295101712701e+00 1.930409947586918236e+02 8.976318182835960613e+00 -8.715939938139902310e+00 8.976318182835960613e+00 1.936327445105065408e+02
1.929873011438580477e+02 5.514472932287489471e+00 -8.709320536234706367e+00 5.514472932287489471e+00 1.930953538535032408e+02 8.975574119584370791e+00 -8.709320536234706367e+00 8.975574119584370791e+00 1.937051494400305955e+02
1.930558427497247180e+02 5.522091262116560095e+00 -8.700497262871662585e+00 5.522091262116560095e+00 1.931484839342282953e+02 8.976543313296479809e+00 -8.700497262871662585e+00 8.976543313296479809e+00 1.937794977126808647e+02
1.931142605644423043e+02 5.531096480537318172e+00 -8.689825512677126440e+00 5.531096480537318172e+00 1.931953202734627553e+02 8.979100455508410406e+00 -8.689825512677126440e+00 8.979100455508410406e+00 1.938483154219425160e+02
1.931541978585894697e+02 5.540416740011318453e+00 -8.677515549005731188e+00 5.540416740011318453e+00 1.932292349738123107e+02 8.983145724223522421e+00 -8.677515549005731188e+00 8.983145724223522421e+00 1.939028401787908820e+02
1.931611669914616130e+02 5.549093466187796864e+00 -8.664561344079391603e+00 5.549093466187796864e+00 1.932370756022721991e+02 8.987915941339801762e+00 -8.664561344079391603e+00 8.987915941339801762e+00 1.939274565663465637e+02
1.931741516385571344e+02 5.556185075694144437e+00 -8.651953330332908365e+00 5.556185075694144437e+00 1.932576651280057547e+02 8.992850404578220491e+00 -8.651953330332908365e+00 8.992850404578220491e+00 1.939603475602624485e+02
1.931517957590531580e+02 5.560950337108462982e+00 -8.641131493164690980e+00 5.560950337108462982e+00 1.932488383148555897e+02 8.997406818552747154e+00 -8.641131493164690980e+00 8.997406818552747154e+00 1.939588027971654469e+02
1.931005552166901111e+02 5.563359516218985057e+00 -8.634246607225863457e+00 5.563359516218985057e+00 1.932172152726843422e+02 9.000511211852671778e+00 -8.634246607225863457e+00 9.000511211852671778e+00 1.939284937239712860e+02
1.930579121092722232e+02 5.562947484998789882e+00 -8.632328042609492158e+00 5.562947484998789882e+00 1.931961478756902295e+02 9.002043231716077898e+00 -8.632328042609492158e+00 9.002043231716077898e+00 1.939061491717860690e+02
1.930006900346421332e+02 5.560174415772837442e+00 -8.636965163730243589e+00 5.560174415772837442e+00 1.931614671654089932e+02 9.001357928930598717e+00 -8.636965163730243589e+00 9.001357928930598717e+00 1.938682359279113143e+02
1.929626252878788364e+02 5.555750389836412673e+00 -8.649051412855966348e+00 5.555750389836412673e+00 1.931469094369195147e+02 8.998213890014985950e+00 -8.649051412855966348e+00 8.998213890014985950e+00 1.938493617830137339e+02
1.928822990227486684e+02 5.550317524572191630e+00 -8.668038122983821481e+00 5.550317524572191630e+00 1.930884080832260565e+02 8.993132879590003625e+00 -8.668038122983821481e+00 8.993132879590003625e+00 1.937908483940440760e+02
1.929244033745676461e+02 5.544488911108503615e+00 -8.692300531827989118e+00 5.544488911108503615e+00 1.931525426541344359e+02 8.986260028927366861e+00 -8.692300531827989118e+00 8.986260028927366861e+00 1.938578891301739588e+02
1.929521545975924539e+02 5.538431627397182311e+00 -8.719629104271236386e+00 5.538431627397182311e+00 1.932042334574185247e+02 8.979041695042301541e+00 -8.719629104271236386e+00 8.979041695042301541e+00 1.939191791281566850e+02
1.929640050968963010e+02 5.531835588086946309e+00 -8.745704592075746575e+00 5.531835588086946309e+00 1.932428128892283041e+02 8.973311487660412311e+00 -8.745704592075746575e+00 8.973311487660412311e+00 1.939768571273671967e+02
1.929762605478461523e+02 5.523933367331245847e+00 -8.767917464180284171e+00 5.523933367331245847e+00 1.932907734648505027e+02 8.970482489798042636e+00 -8.767917464180284171e+00 8.970482489798042636e+00 1.940514999103054095e+02
1.892935756554830959e+02 1.068945457575558322e+01 7.067149813994264562e+00 1.068945457575558322e+01 1.904440069389259236e+02 8.769291677711771982e+00 7.067149813994264562e+00 8.769291677711771982e+00 1.900973401029336571e+02
1.892714904965630467e+02 1.068756042365025394e+01 7.067239469578513678e+00 1.068756042365025394e+01 1.904235796967622605e+02 8.766815475861079676e+00 7.067239469578513678e+00 8.766815475861079676e+00 1.900838846497737222e+02
1.892401010803442318e+02 1.068287912135838802e+01 7.063905135707152283e+00 1.068287912135838802e+01 1.903930704706840800e+02 8.765568124756407897e+00 7.063905135707152283e+00 8.765568124756407897e+00 1.900623644633448919e+02
1.893200439762997576e+02 1.067420316470164110e+01 7.056295084329812006e+00 1.067420316470164110e+01 1.904710957333097952e+02 8.764480161357067090e+00 7.056295084329812006e+00 8.764480161357067090e+00 1.901524469789476370e+02
1.893600367708451699e+02 1.066282188636778727e+01 7.046614415887670013e+00 1.066282188636778727e+01 1.905069010428289857e+02 8.764170636125729885e+00 7.046614415887670013e+00 8.764170636125729885e+00 1.902026797220084120e+02
1.894268123923044129e+02 1.064925471950366820e+01 7.035358370750862456e+00 1.064925471950366820e+01 1.905656674320952959e+02 8.763710261816132885e+00 7.035358370750862456e+00 8.763710261816132885e+00 1.902790612989228975e+02
1.894537987231634020e+02 1.063417977340919940e+01 7.024182019466722160e+00 1.063417977340919940e+01 1.905808170911766126e+02 8.763465487840086610e+00 7.024182019466722160e+00 8.763465487840086610e+00 1.903155290635923791e+02
1.895013908958023308e+02 1.061843454508963269e+01 7.013887992979954689e+00 1.061843454508963269e+01 1.906110623313678616e+02 8.762451525875365022e+00 7.013887992979954689e+00 8.762451525875365022e+00 1.903714648979845379e+02
1.895377604662605222e+02 1.060287005104307489e+01 7.005498080330097466e+00 1.060287005104307489e+01 1.906233209536333106e+02 8.760590816726065100e+00 7.005498080330097466e+00 8.760590816726065100e+00 1.904152168230981204e+02
1.895641120925072016e+02 1.058856998535533123e+01 6.999884644582940574e+00 1.058856998535533123e+01 1.906188950986013140e+02 8.758310291745759812e+00 6.999884644582940574e+00 8.758310291745759812e+00 1.904487579733388998e+02
1.895923806405314167e+02 1.057502345350663475e+01 6.996159668523064923e+00 1.057502345350663475e+01 1.906069267896563133e+02 8.754692048524276515e+00 6.996159668523064923e+00 8.754692048524276515e+00 1.904820073871547095e+02
1.896020847901980062e+02 1.056363079033668662e+01 6.994031415725530998e+00 1.056363079033668662e+01 1.905674107351223654e+02 8.750479659169076996e+00 6.994031415725530998e+00 8.750479659169076996e+00 1.904962035662130972e+02
1.896023110638153923e+02 1.055464815465762740e+01 6.992069666155888541e+00 1.055464815465762740e+01 1.905087959064865686e+02 8.745868800550548272e+00 6.992069666155888541e+00 8.745868800550548272e+00 1.905005952667368092e+02
1.895941580980667709e+02 1.054830039698233435e+01 6.988724659000687289e+00 1.054830039698233435e+01 1.904311826326170092e+02 8.740976167238665440e+00 6.988724659000687289e+00 8.740976167238665440e+00 1.904961124875243286e+02
1.895825099876369393e+02 1.054503650678431192e+01 6.982005471047791012e+00 1.054503650678431192e+01 1.903398065150129810e+02 8.736127650166650938e+00 6.982005471047791012e+00 8.736127650166650938e+00 1.904884540505935888e+02
1.895551372839029511e+02 1.054499381364895427e+01 6.969803061410575928e+00 1.054499381364895427e+01 1.902230834829476294e+02 8.731359538499557260e+00 6.969803061410575928e+00 8.731359538499557260e+00 1.904658110347048705e+02
1.896117241886092870e+02 1.054768490428094196e+01 6.949469744144669114e+00 1.054768490428094196e+01 1.901746054277500377e+02 8.727495098197515233e+00 6.949469744144669114e+00 8.727495098197515233e+00 1.905253217076308943e+02
1.896275683226924400e+02 1.055482817737838097e+01 6.923012808164092924e+00 1.055482817737838097e+01 1.900829233426759401e+02 8.721755717701055843e+00 6.923012808164092924e+00 8.721755717701055843e+00 1.905491907280566011e+02
1.896552889754795785e+02 1.056416374297639038e+01 6.887720527821437067e+00 1.056416374297639038e+01 1.899908057876211842e+02 8.715331112382122214e+00 6.887720527821437067e+00 8.715331112382122214e+00 1.905841492903912240e+02
1.896928283378465210e+02 1.057502487661114721e+01 6.845238011932449851e+00 1.057502487661114721e+01 1.898979766803105065e+02 8.706613174142272982e+00 6.845238011932449851e+00 8.706613174142272982e+00 1.906295577091566713e+02
1.760804790664508914e+02 -1.080972909717993247e+01 -4.773339791041506075e+00 -1.080972909717993247e+01 1.767381886546736780e+02 5.532669348590699698e+00 -4.773339791041506075e+00 5.532669348590699698e+00 1.767099087467643699e+02
1.760529799055750004e+02 -1.080101875178459636e+01 -4.774227400099067431e+00 -1.080101875178459636e+01 1.767098840303778218e+02 5.526594933123880615e+00 -4.774227400099067431e+00 5.526594933123880615e+00 1.766887791440886133e+02
1.760205301978670036e+02 -1.078869254442995285e+01 -4.779157592259907439e+00 -1.078869254442995285e+01 1.766750084820268683e+02 5.520331509995335395e+00 -4.779157592259907439e+00 5.520331509995335395e+00 1.766655064853099191e+02
1.761210488340875600e+02 -1.077163242210164640e+01 -4.787850490794162361e+00 -1.077163242210164640e+01 1.767719984905935462e+02 5.513388386237125793e+00 -4.787850490794162361e+00 5.513388386237125793e+00 1.767766938770823231e+02
1.761674385838003047e+02 -1.075263279038302322e+01 -4.798100521680010999e+00 -1.075263279038302322e+01 1.768137422865905535e+02 5.506720050540963030e+00 -4.798100521680010999e+00 5.506720050540963030e+00 1.768353087877459302e+02
1.762291423158280566e+02 -1.073244677211080678e+01 -4.808747468655483637e+00 -1.073244677211080678e+01 1.768699284488010051e+02 5.500397017303720659e+00 -4.808747468655483637e+00 5.500397017303720659e+00 1.769093227341723207e+02
1.762768638426033760e+02 -1.071275508156925405e+01 -4.817639552187094942e+00 -1.071275508156925405e+01 1.769116686100353206e+02 5.494888897869529387e+00 -4.817639552187094942e+00 5.494888897869529387e+00 1.769685439232585225e+02
1.763211672385117197e+02 -1.069474628616959677e+01 -4.823629641158682979e+00 -1.069474628616959677e+01 1.769504762447027133e+02 5.490463937727532162e+00 -4.823629641158682979e+00 5.490463937727532162e+00 1.770226219230881952e+02
1.763571535703515849e+02 -1.067989101091056803e+01 -4.825020301377451304e+00 -1.067989101091056803e+01 1.769822186275843308e+02 5.487453627238290998e+00 -4.825020301377451304e+00 5.487453627238290998e+00 1.770666040059715556e+02
1.763823395682289572e+02 -1.066912266286006350e+01 -4.821080945535577200e+00 -1.066912266286006350e+01 1.770049947777747263e+02 5.485995360432829315e+00 -4.821080945535577200e+00 5.485995360432829315e+00 1.770975191168568585e+02
1.763851565093412148e+02 -1.066336810651308653e+01 -4.811606573015345667e+00 -1.066336810651308653e+01 1.770079316660568907e+02 5.485959739758119902e+00 -4.811606573015345667e+00 5.485959739758119902e+00 1.771038850402942444e+02