-1.358045122064631727e+01 2.943961392409927491e+00 -5.172113432669449118e+00 2.943961392409927491e+00 -1.108146304996157916e+01 -4.602134798104431823e+00 -5.172113432669449118e+00 -4.602134798104431823e+00 -1.127169273647911218e+01
-9.800732732547952963e+00 1.496409006715931467e+00 -3.117903936012288990e-01 1.496409006715931467e+00 -9.336656540538756488e+00 1.532938272421190407e+00 -3.117903936012288990e-01 1.532938272421190407e+00 -7.900358302080944028e+00
-1.483554886580725984e+00 1.212003696456382285e+00 -2.984752897137495253e+00 1.212003696456382285e+00 -3.425955694522595074e+00 -3.378778837488914277e+00 -2.984752897137495253e+00 -3.378778837488914277e+00 -4.730856107548828682e+00
-8.920000793110350656e+00 1.126358953771960936e+00 1.592392970043852163e+00 1.126358953771960936e+00 -1.212637554939842133e+01 1.663353166272560024e+00 1.592392970043852163e+00 1.663353166272560024e+00 -1.728693833913781219e+01
-1.451762783276969415e+01 2.324792149339401648e-01 -2.084380402082894879e+00 2.324792149339401648e-01 -1.223718317392635591e+01 -3.174390035310559632e+00 -2.084380402082894879e+00 -3.174390035310559632e+00 -1.223759497205239200e+01
-2.452314077553920946e+00 2.172969781395134525e+00 -4.451130610794247211e+00 2.172969781395134525e+00 -6.335452625269471838e+00 -2.570515054930291754e+00 -4.451130610794247211e+00 -2.570515054930291754e+00 -1.034024058492748210e+01
7.719048842112034015e-01 -3.464629631757510264e+00 6.977826253937498002e-01 -3.464629631757510264e+00 -4.941407123266010615e+00 5.605974657961276364e+00 6.977826253937498002e-01 5.605974657961276364e+00 7.916356464587712694e+00
-5.158730259466945967e+00 -1.127395384209713830e-01 -1.615889158961099747e+00 -1.127395384209713830e-01 -6.204767889338087095e+00 -3.133326753954527533e+00 -1.615889158961099747e+00 -3.133326753954527533e+00 -1.099437931136379731e+01
4.919328695288686326e+00 -4.453640429320999239e+00 -1.086249719165272687e+00 -4.453640429320999239e+00 -3.420082805283475302e+00 1.679614231195425633e+00 -1.086249719165272687e+00 1.679614231195425633e+00 -2.492109847762338681e+00
-7.038087779782682851e+00 1.736767553870140202e-01 -1.558251225383487926e+00 1.736767553870140202e-01 -2.908451355584317888e+00 1.563920765702706772e+00 -1.558251225383487926e+00 1.563920765702706772e+00 -5.119469353292211977e+00
-9.656904163081007297e+00 -3.661644888528803841e-03 2.101821414061723292e+00 -3.661644888528803841e-03 -1.409027512582297526e+01 4.333933254736414220e+00 2.101821414061723292e+00 4.333933254736414220e+00 -4.270588903489215937e+00
-1.576967100316483084e+01 -2.172941401130545014e+00 2.746262937281229721e+00 -2.172941401130545014e+00 -1.095068185292113938e+01 -4.624787044047660167e-01 2.746262937281229721e+00 -4.624787044047660167e-01 -1.307915851614047043e+01
-1.773870457158952307e+00 -1.194417063839382953e+00 -5.712276684374522073e-01 -1.194417063839382953e+00 -3.787576107042137430e+00 -1.529520261896176292e+00 -5.712276684374522073e-01 -1.529520261896176292e+00 -1.948679450943032743e+00
-6.675074652392979146e+00 3.843667469383010182e+00 3.786488157203500293e-01 3.843667469383010182e+00 -5.213782595439221623e+00 1.024399723547777974e+00 3.786488157203500293e-01 1.024399723547777974e+00 -7.432526668576116435e+00
-6.773049959014767474e+00 -3.996555949969558430e+00 -1.034811891445096554e+00 -3.996555949969558430e+00 -6.194838458321934027e+00 -1.289034126883852049e-01 -1.034811891445096554e+00 -1.289034126883852049e-01 -8.274366619062599071e+00
6.845976114650958344e+00 -2.715119849286503850e+00 -3.007947284663566312e-01 -2.715119849286503850e+00 5.804275421050010486e+00 -7.825857295656231116e-01 -3.007947284663566312e-01 -7.825857295656231116e-01 8.806320953330385448e-01
-4.439375888936540449e+00 -1.335467597208208623e+00 -3.700333532064328801e-01 -1.335467597208208623e+00 -2.905696655611827772e+00 -3.469113219874442766e+00 -3.700333532064328801e-01 -3.469113219874442766e+00 -5.187204246839197452e+00
-5.139793568251081801e+00 6.207706449928930281e-01 -1.359468599082831020e+00 6.207706449928930281e-01 -9.088106965895217826e+00 -9.191403582819240858e-01 -1.359468599082831020e+00 -9.191403582819240858e-01 -1.204453803785832910e+01
-6.615149613460533651e+00 2.007945052270621478e+00 -3.253437615468139477e+00 2.007945052270621478e+00 -7.598895539255754450e+00 3.394966946784191641e+00 -3.253437615468139477e+00 3.394966946784191641e+00 -8.245868894365981916e+00
-1.088566687194747828e+01 2.413684606627045426e+00 -6.979593922795901406e+00 2.413684606627045426e+00 -1.432695428999245379e+01 -2.060192808603468873e+00 -6.979593922795901406e+00 -2.060192808603468873e+00 -9.905947771376716560e+00
-1.931813815668619938e+01 -9.899860498268341358e-01 -2.883552698025079852e+00 -9.899860498268341358e-01 -1.638994370945668066e+01 -1.526529300818022072e+00 -2.883552698025079852e+00 -1.526529300818022072e+00 -2.072893232054140000e+01
8.306321920170741890e+00 3.079969554817465482e+00 3.037806030301409166e+00 3.079969554817465482e+00 9.224379767841579536e+00 -5.778290341556918897e+00 3.037806030301409166e+00 -5.778290341556918897e+00 2.068466960312306213e+01
-4.520895143341594924e+00 -1.569579358051697904e+00 -1.723011407142896134e+00 -1.569579358051697904e+00 -5.002805755851943204e+00 -3.458812566838787017e+00 -1.723011407142896134e+00 -3.458812566838787017e+00 -6.009132874664106616e+00
-1.109173908648990015e+01 -2.170738513849593154e+00 -8.216553970867626067e-01 -2.170738513849593154e+00 -3.490780730312410984e+00 -4.123123169301656787e+00 -8.216553970867626067e-01 -4.123123169301656787e+00 -5.484048129816354589e+00
-1.495227953592189429e+01 1.251001519086388569e+00 1.273754879776856308e+00 1.251001519086388569e+00 -1.252148248922780205e+01 7.170537914162975479e-01 1.273754879776856308e+00 7.170537914162975479e-01 -1.692759582112138617e+01
-6.449766492421424857e-01 3.733348825047119846e+00 3.139684735015649597e+00 3.733348825047119846e+00 3.139689499855394139e+00 6.570939543688970375e+00 3.139684735015649597e+00 6.570939543688970375e+00 7.572188025482063933e-01
-1.341119628411425424e+01 1.067234921358543448e-01 1.320661431192333424e-01 1.067234921358543448e-01 -1.281433488039899338e+01 -5.403195368659234887e-01 1.320661431192333424e-01 -5.403195368659234887e-01 -8.566398361276679196e+00
-1.509667568504826463e+01 -1.135173181046321596e-02 -3.581678199128865092e+00 -1.135173181046321596e-02 -1.050450623832975694e+01 1.549458868210077611e+00 -3.581678199128865092e+00 1.549458868210077611e+00 -5.672776842295331079e+00
-3.082707689058329148e+00 3.943564357258548814e+00 1.290517670911081938e+00 3.943564357258548814e+00 -1.469046392870251738e+00 -6.238256141010837474e+00 1.290517670911081938e+00 -6.238256141010837474e+00 -2.956909916489256052e+00
-6.248985132430179057e+00 2.452637849689125460e+00 -3.661697779252014673e+00 2.452637849689125460e+00 -1.070634330496172026e+01 -1.527084532020189567e+00 -3.661697779252014673e+00 -1.527084532020189567e+00 -1.234880594633943041e+01
-1.440487576353080534e+01 -8.361602939067949158e-01 -3.311869206331589238e-02 -8.361602939067949158e-01 -1.555481682835638502e+01 8.390557624045793528e-01 -3.311869206331589238e-02 8.390557624045793528e-01 -1.265880991012021717e+01
-7.988914846474135523e+00 8.960311669280775215e-02 -1.794787412767673951e+00 8.960311669280775215e-02 -1.865156578023479395e-01 4.672003235437225364e-03 -1.794787412767673951e+00 4.672003235437225364e-03 -7.867216697680085247e+00
-4.828221891353820183e+00 -1.132461687378208071e+00 1.219561025662337039e+00 -1.132461687378208071e+00 -3.447826094005619346e+00 5.797243835115237776e-01 1.219561025662337039e+00 5.797243835115237776e-01 -3.278335697093436085e+00
-1.027868356016264073e+01 -1.980577715785323933e+00 -1.437198140891773113e+00 -1.980577715785323933e+00 -4.500218581613435909e+00 1.255215444842070704e+00 -1.437198140891773113e+00 1.255215444842070704e+00 -4.085950007148060337e-01
-2.913282925561381020e+00 -2.755121307797311569e+00 3.081688309845048934e+00 -2.755121307797311569e+00 -7.586151823962961949e+00 2.999026762606573082e-01 3.081688309845048934e+00 2.999026762606573082e-01 -5.151570336362511604e+00
8.262670691684644853e-01 4.955686243538697688e+00 5.492572889518149815e+00 4.955686243538697688e+00 -1.861905140329788155e+00 1.401948407179124834e+00 5.492572889518149815e+00 1.401948407179124834e+00 -5.785290681736662499e+00
-8.459866204288671199e+00 -5.084833178215576233e+00 -2.227178691465991067e-01 -5.084833178215576233e+00 -7.968182607841487908e+00 -1.614253256337428444e-01 -2.227178691465991067e-01 -1.614253256337428444e-01 -4.121990029876534400e+00
7.833491681669645101e-02 -4.687336581427850923e+00 3.111229417049836687e+00 -4.687336581427850923e+00 3.641905288352546011e-01 1.047042253413896118e+00 3.111229417049836687e+00 1.047042253413896118e+00 -2.274991254518121675e+00
-3.859810468917258541e-01 1.206393427847306521e+00 -2.320859595499467520e+00 1.206393427847306521e+00 2.722312558913084768e+00 -4.160324293903455484e+00 -2.320859595499467520e+00 -4.160324293903455484e+00 8.877580720944102666e+00
-6.806778424538159733e+00 4.355623290114524759e-01 -2.123152969773209442e+00 4.355623290114524759e-01 -6.842984219827907388e+00 -7.148013640054410311e-01 -2.123152969773209442e+00 -7.148013640054410311e-01 -7.352993371649501064e+00
-4.756766834029101609e+00 9.946830064404048599e-01 -2.236536471017320782e+00 9.946830064404048599e-01 -4.902424771704834150e+00 2.712872373149188387e+00 -2.236536471017320782e+00 2.712872373149188387e+00 -3.803327906318039187e+00
-1.115336524926425987e+01 -2.463809972534950710e+00 3.622657138969858082e+00 -2.463809972534950710e+00 -7.284822058916953225e+00 -1.744050272197066542e+00 3.622657138969858082e+00 -1.744050272197066542e+00 -8.220424384371312954e+00
-5.002955200335300612e-01 1.586333214764478416e+00 1.210653639654675651e+00 1.586333214764478416e+00 -7.791650673059955068e+00 1.192250656306544920e+00 1.210653639654675651e+00 1.192250656306544920e+00 -8.120137836480646243e+00
-1.023184547120085952e+01 2.336235043003813239e+00 -2.072039556885798106e+00 2.336235043003813239e+00 -1.323658088226175877e+01 -2.661168916212553359e+00 -2.072039556885798106e+00 -2.661168916212553359e+00 -1.248164669493611711e+01
-8.704262899102918283e+00 3.001991555412636625e+00 -2.386605721743662034e+00 3.001991555412636625e+00 -2.944503535181680842e+00 -2.463553251822622414e+00 -2.386605721743662034e+00 -2.463553251822622414e+00 -2.379128892669771123e+00
-8.475380643621951648e+00 1.000281081536532390e+00 -2.743970793161789601e+00 1.000281081536532390e+00 3.017958943925030946e-01 2.755349151130896068e+00 -2.743970793161789601e+00 2.755349151130896068e+00 -1.420222259508260976e+00
-4.456691284918878004e+00 4.874783751296399181e+00 2.716424236435260653e+00 4.874783751296399181e+00 1.323857025275952726e+00 -1.028065822143279684e+00 2.716424236435260653e+00 -1.028065822143279684e+00 -4.811040052231767006e-01
-3.996286038136130703e+00 3.013838117947070128e+00 7.661218842081010116e-01 3.013838117947070128e+00 -3.041688757519876329e+00 2.284049353836086649e+00 7.661218842081010116e-01 2.284049353836086649e+00 -3.161088747197821291e+00
-1.167853393452838340e+01 -1.878973838335477708e+00 -9.188038461667020762e-01 -1.878973838335477708e+00 -1.503586912856552260e+01 2.001380742235986165e+00 -9.188038461667020762e-01 2.001380742235986165e+00 4.046185745829100622e-01
-1.173784308740031790e+01 -1.288757699760558317e+00 -2.407964004068350317e+00 -1.288757699760558317e+00 -1.175913774536608258e+01 -2.625474429559704337e+00 -2.407964004068350317e+00 -2.625474429559704337e+00 -7.372551683828724833e+00
-1.513480672260948179e+00 1.878856439048318894e+00 2.700527810724724809e+00 1.878856439048318894e+00 7.824427118891141841e-01 2.868248417543564077e+00 2.700527810724724809e+00 2.868248417543564077e+00 -1.079514546130776464e+00
-9.292787749690511134e+00 -9.300499044421238759e-01 -9.685252824512490255e-01 -9.300499044421238759e-01 -1.267446891749431792e+01 7.345283055147219797e-02 -9.685252824512490255e-01 7.345283055147219797e-02 -1.044872326449215549e+01
8.876911564289139411e-01 8.582252637691565766e+00 -3.745435942598125845e+00 8.582252637691565766e+00 7.449313932107252123e-01 -1.444666718052314947e+00 -3.745435942598125845e+00 -1.444666718052314947e+00 -2.993925138276591902e+00
-6.547148766019876831e+00 1.410172436181785116e+00 -1.018105566608003887e+00 1.410172436181785116e+00 -7.735888341964201054e+00 -6.107659928158243545e+00 -1.018105566608003887e+00 -6.107659928158243545e+00 -5.516748009082970583e+00
5.619612885976426497e+00 7.145650552713692649e-01 -3.190148694281142561e+00 7.145650552713692649e-01 -8.695836179900411078e-02 -7.264658116678111011e-01 -3.190148694281142561e+00 -7.264658116678111011e-01 6.894668783057917416e+00
-4.429329649236516175e+00 5.226129980701688993e+00 2.440892448600290088e+00 5.226129980701688993e+00 -4.497799121226322860e+00 -2.485126261641190659e-02 2.440892448600290088e+00 -2.485126261641190659e-02 -5.603345610517037834e+00
-6.563999227947277859e+00 -7.906403945680360312e-01 -1.823298743398514166e+00 -7.906403945680360312e-01 -5.151033591996148964e+00 1.320873202137080914e-03 -1.823298743398514166e+00 1.320873202137080914e-03 -6.411087315780945595e+00
-6.331052901088044749e+00 -7.501286724991791666e-02 6.303603948348915909e-01 -7.501286724991791666e-02 -7.051857754599944350e+00 -1.051564658112870143e-01 6.303603948348915909e-01 -1.051564658112870143e-01 -2.200564672937353805e+00
-5.630036404491063351e+00 2.987316325073153589e+00 -3.044897377186892573e+00 2.987316325073153589e+00 4.307499108640232777e+00 3.341323312252342248e+00 -3.044897377186892573e+00 3.341323312252342248e+00 -2.905210930239770395e+00
-3.029767309084382187e+00 -2.125972167546351876e+00 1.797383559707694367e+00 -2.125972167546351876e+00 -1.312743673436358982e+01 2.892066655942521436e+00 1.797383559707694367e+00 2.892066655942521436e+00 -1.175528725759084558e+01
-6.226861551023826102e+00 1.133348604014308592e+00 -3.555209453953978915e+00 1.133348604014308592e+00 -3.647370654937953205e+00 7.428257655450010155e-01 -3.555209453953978915e+00 7.428257655450010155e-01 -5.497686756074889658e+00
2.986467663146321616e+00 -4.529796941819814182e-01 3.512926709860877406e+00 -4.529796941819814182e-01 9.092447666582296861e+00 2.925255833453907162e+00 3.512926709860877406e+00 2.925255833453907162e+00 1.072491010919131460e+00
-2.511050072244087605e+00 1.210503883703572203e+00 -1.460092614329019156e+00 1.210503883703572203e+00 -1.049736391351420117e+01 7.815328837629791359e-01 -1.460092614329019156e+00 7.815328837629791359e-01 -5.200288597396778734e+00
-8.580876951380624007e+00 2.790645997948615786e+00 1.088965776415851267e-01 2.790645997948615786e+00 -7.973726086817244152e+00 -6.333600211468896068e-01 1.088965776415851267e-01 -6.333600211468896068e-01 -1.105703135153376770e+01
-1.268481716639024626e+01 -5.711649105447903496e-01 -3.187300214327203340e-01 -5.711649105447903496e-01 -4.015072491490048634e+00 2.577475956339454033e+00 -3.187300214327203340e-01 2.577475956339454033e+00 -1.378109597798495400e+01
-8.988781140086475219e+00 1.913574914921197356e+00 1.047952339812744160e+00 1.913574914921197356e+00 -1.159264195479655513e+01 -1.266891513459126539e+00 1.047952339812744160e+00 -1.266891513459126539e+00 -1.394060570447508063e+01
-6.364954170021916546e+00 1.682944986442325597e+00 4.516804638205890732e-01 1.682944986442325597e+00 3.217727227632128928e-01 -3.056325214975276205e-01 4.516804638205890732e-01 -3.056325214975276205e-01 -6.119891692337293243e+00
-1.537454692143548129e+01 -2.455691298984709725e+00 1.763444109343667243e+00 -2.455691298984709725e+00 -7.662366092117114391e+00 -3.723917402715333225e+00 1.763444109343667243e+00 -3.723917402715333225e+00 -1.757673429852392388e+01
-4.675010058202304641e-01 4.348777331818613590e+00 1.224394016489212866e+00 4.348777331818613590e+00 1.653310053064829033e+00 -4.521094798992084662e+00 1.224394016489212866e+00 -4.521094798992084662e+00 -1.190893410930447871e+00
-1.162506119231945689e+01 -1.954354891301362862e+00 -2.283097703363994313e+00 -1.954354891301362862e+00 -6.308481765845548317e+00 9.701647656021847865e-01 -2.283097703363994313e+00 9.701647656021847865e-01 -6.051463036474194368e+00
-8.465217242663744202e+00 5.152802449655114359e+00 -1.910839307629332406e+00 5.152802449655114359e+00 -3.550949284464824274e+00 4.806628780321098859e-01 -1.910839307629332406e+00 4.806628780321098859e-01 -4.039321673241394350e+00
-6.537557223152022923e-01 -6.823058796623925337e-01 -2.704448714836879208e+00 -6.823058796623925337e-01 -8.690755489569976788e+00 -2.159682291142323685e+00 -2.704448714836879208e+00 -2.159682291142323685e+00 -8.026242909104134071e+00
-1.135863032540030915e+01 3.318185165137066850e+00 2.238275305033653240e+00 3.318185165137066850e+00 -8.224918828418335437e+00 3.180469061050943846e+00 2.238275305033653240e+00 3.180469061050943846e+00 -7.722436809526577406e+00
-3.671053116031345542e+00 -4.737981246120624990e-01 1.411633839277674163e+00 -4.737981246120624990e-01 -1.101068778941840698e+01 1.051240099129701955e+00 1.411633839277674163e+00 1.051240099129701955e+00 -9.249277790987671111e+00
-1.022481248873702953e+01 6.218155038455739358e-01 -1.699204904515438708e+00 6.218155038455739358e-01 -1.105724993699173808e+01 1.930392025606736839e+00 -1.699204904515438708e+00 1.930392025606736839e+00 -1.280039528206759947e+01
-1.298447237934817977e+01 -6.718091554973214530e-01 2.282087676200708071e+00 -6.718091554973214530e-01 -2.592641878351793050e+00 -2.123283407643673293e+00 2.282087676200708071e+00 -2.123283407643673293e+00 -1.257947420112349057e+01
-2.611803005741492711e+00 -7.376085552609591423e-01 8.097074811085830603e+00 -7.376085552609591423e-01 -5.579846405323218406e+00 -1.922797362543632982e+00 8.097074811085830603e+00 -1.922797362543632982e+00 -1.198766544321538285e+00
7.031340441259728458e+00 6.005904535549815293e-01 3.582043549891067991e-01 6.005904535549815293e-01 -2.432000554114289947e+00 -4.277927706018788356e+00 3.582043549891067991e-01 -4.277927706018788356e+00 -5.337495381893628377e+00
-1.448199526218628286e+01 1.015601397823171936e+00 1.081207716396154761e-01 1.015601397823171936e+00 -1.087413481296595741e+01 4.829113047022005611e-01 1.081207716396154761e-01 4.829113047022005611e-01 -1.092766328491579131e+01
-1.234215383017333068e+01 -1.796302861388780148e+00 1.426359140445369711e+00 -1.796302861388780148e+00 -1.067692113728574022e+01 -3.331878749356430580e-01 1.426359140445369711e+00 -3.331878749356430580e-01 -7.515431592685962059e+00
8.976245630722592850e+00 -4.605749037503370502e+00 5.532209466077381066e+00 -4.605749037503370502e+00 9.090430079286996090e+00 3.159926935322590946e+00 5.532209466077381066e+00 3.159926935322590946e+00 9.929392684869544183e+00
-7.138170528740863219e+00 -7.470305023429081315e-01 -1.329037742640306385e+00 -7.470305023429081315e-01 -5.728919149149167556e-01 -1.114268044560231319e+00 -1.329037742640306385e+00 -1.114268044560231319e+00 -1.740234577717141295e+00
-3.058834061739221788e+00 6.278318935043846416e+00 -1.527355901904531077e+00 6.278318935043846416e+00 6.856840587945784549e+00 5.320662510727661498e+00 -1.527355901904531077e+00 5.320662510727661498e+00 3.430535042317917060e+00
3.427587143456781726e-01 2.215744947698120360e+00 -3.582726158159257324e+00 2.215744947698120360e+00 5.702110751965751234e+00 -5.430517969116183785e+00 -3.582726158159257324e+00 -5.430517969116183785e+00 2.084952788861157646e+00
-1.295020259025635134e+01 1.468870467671964164e+00 -1.408341900724801032e+00 1.468870467671964164e+00 -3.247541403049522213e+00 -2.094918932997697159e+00 -1.408341900724801032e+00 -2.094918932997697159e+00 -9.073957553935441567e+00
-9.734364563442781559e+00 1.919277757123178718e+00 1.592295625171691986e+00 1.919277757123178718e+00 -9.410834250832355252e+00 -4.005633115973663116e+00 1.592295625171691986e+00 -4.005633115973663116e+00 -8.124340258649180413e+00
-1.469547092723116855e+01 -1.143774830102502138e+00 -2.446580703308256943e+00 -1.143774830102502138e+00 -1.137062870897897504e+01 1.351849546543886893e+00 -2.446580703308256943e+00 1.351849546543886893e+00 -1.167300526657002990e+01
-9.796555115659009161e+00 -7.334597867099056145e+00 3.194482096490586009e+00 -7.334597867099056145e+00 -5.118475445708949856e-01 -5.304867468884615356e+00 3.194482096490586009e+00 -5.304867468884615356e+00 -5.659252963770945222e+00
-1.174051429065435137e+01 -2.604382187001728521e+00 2.002822872179026881e+00 -2.604382187001728521e+00 -6.344593949565260793e+00 -3.537718056257672217e+00 2.002822872179026881e+00 -3.537718056257672217e+00 -9.448956811313985682e+00
-3.889332923570630873e-01 4.600429283757784482e+00 1.270563811911078034e+00 4.600429283757784482e+00 -3.894957872282731604e+00 4.291925152233003748e-01 1.270563811911078034e+00 4.291925152233003748e-01 -8.280719801193527019e+00
-5.485765947446468616e+00 -2.160924257596720022e+00 -3.026489428973396234e-01 -2.160924257596720022e+00 -2.049854054576999651e+00 -3.142224472766164123e+00 -3.026489428973396234e-01 -3.142224472766164123e+00 -4.832598444402290916e+00
-4.866047792240853376e+00 3.247651541982026213e-01 -1.432584626080230183e+00 3.247651541982026213e-01 -9.116969569522339611e+00 4.659478304513915425e+00 -1.432584626080230183e+00 4.659478304513915425e+00 -7.381710951040197699e+00
-6.124540520794452547e+00 -2.203117686974795930e+00 -5.993838324787497118e-01 -2.203117686974795930e+00 -6.086890413731455673e+00 8.552562161493192372e-01 -5.993838324787497118e-01 8.552562161493192372e-01 -1.033292160751457089e+01
-6.336777134670877665e+00 2.628530398656566902e+00 5.427748130057358900e+00 2.628530398656566902e+00 -4.534843804937989553e+00 -3.615382023323537197e+00 5.427748130057358900e+00 -3.615382023323537197e+00 -2.576712053819965931e+00
-3.135937937901954520e+00 6.562084416956082134e-01 2.415926971496442199e+00 6.562084416956082134e-01 -9.032803373664630708e-01 6.699467353051619334e+00 2.415926971496442199e+00 6.699467353051619334e+00 7.746389832669218656e+00
8.414202224788617457e+00 -4.203249821285999666e+00 -1.551168423307348387e+00 -4.203249821285999666e+00 3.817626390287760074e+00 1.178740173821776482e-01 -1.551168423307348387e+00 1.178740173821776482e-01 8.999256993024696838e-01
-1.047813892518227341e+01 3.154754833339171061e+00 3.430977448690829323e+00 3.154754833339171061e+00 -5.105822821257765654e+00 -1.935080074881554424e+00 3.430977448690829323e+00 -1.935080074881554424e+00 -8.547568021795074245e+00
-1.071841612014327438e+01 -5.264400519805030321e-01 -1.309863368942762174e-01 -5.264400519805030321e-01 -7.957709872034006260e+00 1.096617184997563527e-02 -1.309863368942762174e-01 1.096617184997563527e-02 -5.422527135103281992e+00
-1.266238670596724525e+01 -8.320508878622927540e-01 -1.096535660638300103e+00 -8.320508878622927540e-01 -1.104661185146900593e+01 4.006539163339625231e-01 -1.096535660638300103e+00 4.006539163339625231e-01 -1.592674825678491857e+01
-6.328304107728672356e+00 2.759905008520083136e+00 -1.870384146380678292e+00 2.759905008520083136e+00 -6.647510265289301168e-02 -1.885988854612907772e+00 -1.870384146380678292e+00 -1.885988854612907772e+00 -5.534880252085237373e+00
6.717331690115730947e-01 -5.901460976970946543e-02 -1.374029124415172332e+00 -5.901460976970946543e-02 -5.777966342252206289e+00 -3.574231450999032944e+00 -1.374029124415172332e+00 -3.574231450999032944e+00 -3.526761170214008700e+00
-4.300058237704742936e+00 1.834405194223698521e+00 -9.331615919317527430e-01 1.834405194223698521e+00 -1.567558278752165357e+00 1.973610124206408578e-01 -9.331615919317527430e-01 1.973610124206408578e-01 -6.962954066495386840e+00
-1.679478223949884352e+01 1.309307231617655276e+00 -1.959466312921296360e+00 1.309307231617655276e+00 -1.809318885465651050e+01 -1.909002145393929206e+00 -1.959466312921296360e+00 -1.909002145393929206e+00 -1.585012837673721187e+01
1.589403777655697736e+00 2.284393258294613815e+00 -2.674150687033764129e+00 2.284393258294613815e+00 -4.044881550868365316e+00 -1.082395171183115901e+00 -2.674150687033764129e+00 -1.082395171183115901e+00 2.099086941567561038e+00
-7.468742037945003354e+00 -2.253569659318148233e+00 3.049448336942568005e+00 -2.253569659318148233e+00 -1.095420593654305286e+01 -3.153781150120902765e+00 3.049448336942568005e+00 -3.153781150120902765e+00 -7.816055779966247563e+00
-1.810717230815559020e+01 -6.034501876173026247e-01 -3.346437714505470673e+00 -6.034501876173026247e-01 -1.649678351425009026e+01 -1.177374864824698664e+00 -3.346437714505470673e+00 -1.177374864824698664e+00 -1.952718571240534118e+01
-8.115787112960877181e+00 5.035233159277325843e-01 1.328983552302640536e+00 5.035233159277325843e-01 -7.082359628817313180e+00 -2.055508074114421047e-01 1.328983552302640536e+00 -2.055508074114421047e-01 -9.865246324384395749e+00
-1.289703434555511841e+01 -1.585259543261968052e+00 -3.946052231728825355e+00 -1.585259543261968052e+00 -1.466811306402792603e+01 -1.423387782612060004e+00 -3.946052231728825355e+00 -1.423387782612060004e+00 -1.747248864892777576e+01
-6.498657524375459182e+00 1.699556481326165880e+00 5.861641639030277240e-01 1.699556481326165880e+00 -4.540896979044145354e+00 2.171386344081419395e+00 5.861641639030277240e-01 2.171386344081419395e+00 -2.756136919170959487e+00
-6.152250950783109573e+00 5.433788074496012088e-01 -7.764561109386718396e-01 5.433788074496012088e-01 -4.341056565138850409e+00 1.990378370002653829e+00 -7.764561109386718396e-01 1.990378370002653829e+00 -8.100843344704211191e+00
-8.525235738693700327e+00 -1.089489594244278825e+00 6.847042675104710874e-01 -1.089489594244278825e+00 -1.079948906540302822e+01 1.013648078767868804e-01 6.847042675104710874e-01 1.013648078767868804e-01 -9.785618053490443558e+00
4.994833624540769179e+00 -1.772515435880632761e+00 -5.955076343846721354e-01 -1.772515435880632761e+00 2.703518460307805960e+00 1.002278243558232695e+00 -5.955076343846721354e-01 1.002278243558232695e+00 -1.820508544319343835e+00
-9.124952666204025675e+00 -6.118089910669437970e+00 -6.448452656447669629e-01 -6.118089910669437970e+00 -6.507883487895182562e+00 -1.218261306930960686e+00 -6.448452656447669629e-01 -1.218261306930960686e+00 -4.893722903265320667e+00
-6.836445627758139132e+00 4.907661931438776826e+00 6.686303705585108226e-01 4.907661931438776826e+00 -7.350594761467908356e+00 9.403891455881279171e-01 6.686303705585108226e-01 9.403891455881279171e-01 -7.602216174493977796e+00
5.792470284915927081e-01 8.068531364299579067e+00 -5.016958079606049559e+00 8.068531364299579067e+00 -2.425801318746450830e-01 -1.371971279447480763e+00 -5.016958079606049559e+00 -1.371971279447480763e+00 -4.057605469977984214e+00
-1.245494502226232747e+01 -4.118638790133745786e+00 -3.469836753347820490e+00 -4.118638790133745786e+00 -9.255126838133788780e+00 2.623781778976858270e+00 -3.469836753347820490e+00 2.623781778976858270e+00 -8.399560777681738699e+00
-4.391078701466550882e+00 -1.832554821384796861e+00 -1.335762231585572168e+00 -1.832554821384796861e+00 -1.017481945149408240e+01 1.691473308022385158e+00 -1.335762231585572168e+00 1.691473308022385158e+00 1.265172438583896719e+00
-1.118165004225786419e+01 -4.490263599465605715e+00 -2.275053579520706304e+00 -4.490263599465605715e+00 -7.142789751866255088e+00 7.408010935879271175e-01 -2.275053579520706304e+00 7.408010935879271175e-01 -3.061543703436799380e+00
-8.102903592736327099e+00 -3.296608301684881948e+00 2.433075250001591971e+00 -3.296608301684881948e+00 -1.091745465177990404e+01 -1.584721321704779973e+00 2.433075250001591971e+00 -1.584721321704779973e+00 -1.020629733522662086e+01
-1.384878322382007809e+01 -8.274406059067067609e-01 -3.753591086916601594e+00 -8.274406059067067609e-01 -1.011702148279738722e+01 -2.088041697084618287e-01 -3.753591086916601594e+00 -2.088041697084618287e-01 -5.834833504641220969e+00
-7.328056945760171637e+00 -3.190365273942576074e+00 1.447458757553811703e-01 -3.190365273942576074e+00 -9.054357095714292925e+00 -4.271330944024454901e+00 1.447458757553811703e-01 -4.271330944024454901e+00 4.061174513627437754e+00
-6.726216607793149116e+00 -5.469693825832382394e+00 -2.825729776408370864e+00 -5.469693825832382394e+00 -1.165474413901691442e+01 1.615864481090700355e+00 -2.825729776408370864e+00 1.615864481090700355e+00 -1.267389401425621109e+01
8.427802134843278559e-01 2.750911241880126257e-01 4.295520583589214958e+00 2.750911241880126257e-01 -5.317335152141525079e+00 2.794035131764354585e+00 4.295520583589214958e+00 2.794035131764354585e+00 -5.140728764734824097e+00
-7.803315614572338355e+00 -7.852382935404303432e-02 -3.110478968638018760e+00 -7.852382935404303432e-02 -1.301367356919759244e+00 4.818666971396109666e+00 -3.110478968638018760e+00 4.818666971396109666e+00 -1.514885261423235985e+00
-1.000915226654177026e+01 -3.868789772690123918e+00 -1.950804353715425710e-01 -3.868789772690123918e+00 -9.536975360938914292e+00 -1.792793503081845152e+00 -1.950804353715425710e-01 -1.792793503081845152e+00 -3.691459974655972420e+00
-1.089533918479509977e-01 1.715872399862191200e+00 -3.777556241861370068e-01 1.715872399862191200e+00 -4.509333231624639837e-01 1.351898061263737461e+00 -3.777556241861370068e-01 1.351898061263737461e+00 -4.806870196003332651e+00
-1.162526690349867486e+01 -1.836526286963179988e+00 -2.687308483336006582e+00 -1.836526286963179988e+00 -8.103872073533473497e+00 4.685839348063292498e+00 -2.687308483336006582e+00 4.685839348063292498e+00 -6.261232671566379970e+00
-2.898943144490131019e+00 1.039497728474433336e+00 -3.254473709109766855e+00 1.039497728474433336e+00 1.476103056648174139e+01 2.175448051094484470e+00 -3.254473709109766855e+00 2.175448051094484470e+00 -2.282478076454065530e+00
-1.236747740926166017e+01 -1.878543210329248092e+00 8.581415160306200829e-02 -1.878543210329248092e+00 -1.154683240941806410e+01 2.169558925194077670e+00 8.581415160306200829e-02 2.169558925194077670e+00 -6.454756449075208735e+00