7.573995917000000411e+00 0.000000000000000000e+00 0.000000000000000000e+00 8.852969000000000463e-03 7.539975551000000387e+00 0.000000000000000000e+00 -6.632709999999999995e-03 -8.546928299999999312e-02 7.731801144000000292e+00
7.647062037999999617e+00 0.000000000000000000e+00 0.000000000000000000e+00 1.355607630000000008e-01 7.921155362000000366e+00 0.000000000000000000e+00 1.099173199999999989e-01 1.691228959999999948e-01 7.866420702000000098e+00
7.754578314999999833e+00 0.000000000000000000e+00 0.000000000000000000e+00 1.058130169999999953e-01 7.544375156000000082e+00 0.000000000000000000e+00 -2.291880619999999980e-01 1.425753319999999991e-01 7.620033034999999622e+00
7.589406460000000187e+00 0.000000000000000000e+00 0.000000000000000000e+00 8.870981999999999479e-03 7.555316873999999849e+00 0.000000000000000000e+00 -6.646204999999999648e-03 -8.564318499999999668e-02 7.747532768000000125e+00
7.733249146000000351e+00 0.000000000000000000e+00 0.000000000000000000e+00 -2.611258699999999960e-02 7.962219282000000398e+00 0.000000000000000000e+00 5.698538000000000214e-02 1.838849949999999955e-01 7.625215837999999913e+00
7.647108043000000244e+00 0.000000000000000000e+00 0.000000000000000000e+00 -1.194580100000000068e-02 7.630616933999999851e+00 0.000000000000000000e+00 -1.432560370000000027e-01 1.459491209999999872e-01 7.523877106999999675e+00
