2.430999999999999828e-02 3.837950000000000195e+00 4.209000000000000241e-02 7.076349999999999696e+00 7.353449999999999598e+00 7.516040000000000276e+00 7.099510000000000431e+00 1.787360000000000060e+00 6.265620000000000189e+00 3.833709999999999951e+00 5.346739999999999604e+00 1.930960000000000010e+00 4.255099999999999660e+00 5.446159999999999890e+00 5.450420000000000265e+00 5.574659999999999727e+00 4.104779999999999873e+00 2.049630000000000063e+00 2.122759999999999980e+00 7.030700000000000394e+00 5.761840000000000295e+00 3.121989999999999821e+00 1.374260000000000037e+00 2.509189999999999809e+00 5.676479999999999748e+00 1.753319999999999990e+00 3.821270000000000167e+00 2.634069999999999911e+00 1.625750000000000028e+00 5.413249999999999673e+00 2.333130000000000148e+00 3.534790000000000099e+00 1.975759999999999961e+00 1.516999999999999904e+00 3.843280000000000030e+00 5.822530000000000427e+00 4.757259999999999600e+00 2.667030000000000012e+00 6.157630000000000159e+00 3.988529999999999909e+00 1.143900000000000056e-01 7.381890000000000285e+00 5.509590000000000209e+00 6.154359999999999609e+00 3.568060000000000009e+00 7.488459999999999894e+00 6.243400000000000061e-01 3.673029999999999795e+00 3.269960000000000200e+00 3.805379999999999985e+00 7.378110000000000390e+00 1.988159999999999927e+00 1.469840000000000035e+00 9.454999999999999516e-02 1.766650000000000054e+00 5.356080000000000396e+00 3.601840000000000153e+00 3.698799999999999866e-01 1.997309999999999919e+00 1.679370000000000029e+00 5.414740000000000109e+00 1.946830000000000060e+00 6.740599999999999925e-01 6.476239999999999775e+00 4.147549999999999848e+00 5.721799999999999997e+00 3.149299999999999877e-01 3.402489999999999792e+00 3.664730000000000043e+00 5.861919999999999575e+00 7.325910000000000366e+00 1.522299999999999986e+00 5.549409999999999954e+00 5.361220000000000319e+00 7.640200000000000102e+00 3.484500000000000153e+00 7.498669999999999725e+00 3.629199999999999982e+00 1.636779999999999902e+00 5.726989999999999803e+00 4.451999999999999846e-01 3.740619999999999834e+00 3.330670000000000019e+00 3.968350000000000044e+00 5.466529999999999667e+00 7.356080000000000396e+00 5.680889999999999773e+00 1.350530000000000008e+00 7.403109999999999857e+00 1.759830000000000005e+00 7.515480000000000160e+00 6.199460000000000193e+00 4.980769999999999698e+00 7.572300000000000253e+00 5.427080000000000126e+00 1.899359999999999937e+00
6.361309999999999576e+00 2.082699999999999996e+00 4.524180000000000312e+00 6.688299999999999912e+00 3.892539999999999889e+00 2.764609999999999790e+00 1.008010000000000073e+00 1.614929999999999977e+00 6.491959999999999731e+00 3.719840000000000035e+00 7.319900000000000295e-01 7.624749999999999694e+00 3.520140000000000047e+00 3.374029999999999863e+00 7.355089999999999684e+00 7.338400000000000034e+00 7.682809999999999917e+00 5.047649999999999970e+00 5.643189999999999706e+00 3.250710000000000210e+00 6.653299999999999770e+00 6.556140000000000079e+00 5.655140000000000278e+00 6.192759999999999820e+00 4.096510000000000318e+00 1.594729999999999981e+00 5.446480000000000210e+00 4.720679999999999765e+00 3.831830000000000069e+00 4.553960000000000008e+00 4.662340000000000373e+00 5.545930000000000248e+00 6.291179999999999772e+00 5.000680000000000014e+00 5.786690000000000111e+00 2.685569999999999791e+00 1.525269999999999904e+00 7.382360000000000255e+00 2.632140000000000146e+00 2.162669999999999870e+00 1.506459999999999910e+00 1.254040000000000044e+00 8.789400000000000546e-01 7.790479999999999627e+00 2.587300000000000155e-01 5.963239999999999874e+00 4.869060000000000166e+00 1.286700000000000066e-01 2.484440000000000204e+00 3.553900000000000059e+00 5.174280000000000435e+00 4.984939999999999927e+00 7.525120000000000253e+00 4.903850000000000264e+00 5.682929999999999815e+00 7.305769999999999875e+00 7.498619999999999841e+00 3.016119999999999912e+00 5.934739999999999682e+00 4.183010000000000339e+00 2.853260000000000129e+00 4.099649999999999572e+00 2.242030000000000189e+00 4.608740000000000059e+00 2.745270000000000099e+00 1.352179999999999938e+00 1.006380000000000052e+00 1.848479999999999901e+00 4.286909999999999776e+00 7.219999999999999751e+00 6.068459999999999965e+00 2.441069999999999851e+00 1.962040000000000006e+00 7.782440000000000246e+00 5.187610000000000277e+00 5.905190000000000161e+00 6.542299999999999782e-01 2.499460000000000015e+00 8.126499999999999835e-01 4.177260000000000417e+00 8.455399999999999583e-01 7.382760000000000211e+00 2.117719999999999825e+00 1.029490000000000016e+00 1.489519999999999955e+00 5.548140000000000072e+00 6.488430000000000142e+00 6.028000000000000025e-01 4.553930000000000256e+00 4.323080000000000034e+00 3.495509999999999895e+00 8.498799999999999688e-01 3.201659999999999950e+00 3.084010000000000140e+00 6.007069999999999688e+00 3.100200000000000178e-01
6.113640000000000185e+00 3.602599999999999802e+00 5.431969999999999743e+00 3.609500000000000153e+00 2.616410000000000124e+00 1.704939999999999900e+00 1.653629999999999933e+00 2.298840000000000217e+00 3.737159999999999815e+00 3.803700000000000081e+00 1.461399999999999921e-01 2.632399999999999740e-01 7.654499999999999638e+00 6.783000000000000140e-02 2.829300000000000148e-01 5.107140000000000235e+00 4.658689999999999998e+00 7.398329999999999629e+00 5.565680000000000405e+00 1.873629999999999907e+00 3.754220000000000113e+00 7.556070000000000064e+00 1.739700000000000024e+00 5.677839999999999776e+00 1.963240000000000096e+00 3.634110000000000174e+00 5.792279999999999873e+00 5.962449999999999584e+00 8.645999999999999519e-02 1.643010000000000081e+00 3.899999999999999821e-03 1.685929999999999929e+00 2.048770000000000202e+00 7.242530000000000356e+00 7.231220000000000425e+00 3.845670000000000144e+00 4.302830000000000155e+00 5.579110000000000014e+00 1.525640000000000107e+00 1.771209999999999951e+00 5.971309999999999896e+00 2.407900000000000040e-01 7.632349999999999746e+00 5.615529999999999688e+00 6.295889999999999986e+00 6.192300000000000360e+00 3.865400000000000169e+00 1.959480000000000111e+00 2.088099999999999845e+00 5.902580000000000382e+00 4.006400000000000183e+00 1.952159999999999895e+00 7.356329999999999814e+00 5.134929999999999772e+00 6.064040000000000319e+00 1.837809999999999944e+00 6.436000000000000054e-02 1.399600000000000011e-01 5.725530000000000008e+00 1.893629999999999924e+00 3.280429999999999957e+00 4.202020000000000088e+00 3.576000000000000012e-02 1.343699999999999894e-01 3.530920000000000059e+00 7.426689999999999792e+00 2.013669999999999849e+00 1.925359999999999960e+00 7.373029999999999973e+00 3.959449999999999914e+00 7.565710000000000157e+00 3.860380000000000145e+00 4.085049999999999848e+00 2.254579999999999806e+00 5.586800000000000210e+00 3.577000000000000179e-01 4.416170000000000151e+00 3.846979999999999844e+00 5.729330000000000034e+00 2.041499999999999981e-01 6.108830000000000204e+00 3.591509999999999980e+00 6.170480000000000409e+00 6.318870000000000431e+00 3.635540000000000216e+00 4.046520000000000117e+00 3.890740000000000087e+00 1.428679999999999950e+00 3.727289999999999992e+00 1.870949999999999891e+00 2.140190000000000037e+00 4.858600000000000141e-01 1.665640000000000009e+00 5.469610000000000305e+00 5.249060000000000059e+00 3.601290000000000102e+00
5.816000000000000059e-01 3.357159999999999922e+00 5.701800000000000201e-01 1.196569999999999911e+00 4.626430000000000042e+00 2.628629999999999800e+00 6.767900000000000027e-01 3.001980000000000093e+00 5.827639999999999709e+00 2.193709999999999827e+00 6.361130000000000173e+00 9.312399999999999567e-01 1.890699999999999881e-01 8.113500000000000156e-01 4.399100000000000232e-01 4.284229999999999983e+00 6.459600000000000009e+00 8.054499999999999993e-01 2.854509999999999881e+00 6.953540000000000276e+00 6.372569999999999624e+00 3.916799999999999837e+00 8.061000000000000387e-01 1.234809999999999963e+00 5.385060000000000180e+00 -6.469999999999999363e-02 7.389179999999999637e+00 2.245610000000000106e+00 9.737500000000000044e-01 4.717660000000000409e+00 1.782929999999999904e+00 2.198970000000000091e+00 2.255640000000000089e+00 2.779170000000000140e+00 4.080860000000000376e+00 4.159209999999999852e+00 4.012850000000000250e+00 2.743770000000000042e+00 6.703500000000000014e+00 4.004710000000000214e+00 4.927010000000000112e+00 6.362230000000000274e+00 4.825730000000000075e+00 6.393100000000000449e-01 4.997709999999999653e+00 6.080569999999999808e+00 6.083990000000000009e+00 4.694320000000000270e+00 3.300089999999999968e+00 4.151849999999999596e+00 9.052700000000000191e-01 2.169160000000000199e+00 1.688870000000000093e+00 7.013639999999999652e+00 7.329599999999999449e-01 -2.425000000000000072e-02 2.907319999999999904e+00 5.714959999999999596e+00 2.133160000000000167e+00 1.591660000000000075e+00 7.202919999999999767e+00 6.106020000000000003e+00 7.211079999999999934e+00 5.517750000000000377e+00 3.267790000000000195e+00 4.835090000000000110e+00 7.223010000000000375e+00 2.327490000000000059e+00 3.524820000000000064e+00 6.143220000000000347e+00 -1.539999999999999919e-03 2.662529999999999841e+00 5.756420000000000314e+00 4.271910000000000096e+00 5.641000000000000181e-02 3.539419999999999789e+00 6.645240000000000258e+00 3.696250000000000036e+00 1.704660000000000064e+00 4.771349999999999980e+00 6.744439999999999991e+00 4.116039999999999921e+00 1.912430000000000074e+00 3.298840000000000217e+00 6.398810000000000109e+00 2.014810000000000212e+00 6.664520000000000444e+00 3.909599999999999742e-01 2.951199999999999934e-01 5.724529999999999674e+00 1.349949999999999983e+00 5.926720000000000432e+00 4.581039999999999779e+00 5.569189999999999863e+00 4.958230000000000359e+00 2.424040000000000195e+00
3.419309999999999850e+00 5.297869999999999635e+00 2.228689999999999838e+00 4.581809999999999938e+00 4.550839999999999996e+00 6.313649999999999984e+00 2.039359999999999840e+00 6.314960000000000129e+00 8.355999999999999539e-02 2.631250000000000089e+00 6.093720000000000248e+00 5.033439999999999692e+00 2.722589999999999844e+00 3.455880000000000063e+00 8.465700000000000447e-01 1.955419999999999936e+00 7.345640000000000391e+00 3.068680000000000074e+00 9.951999999999999735e-01 5.033780000000000143e+00 2.763700000000000045e+00 6.057179999999999787e+00 5.210840000000000138e+00 2.939779999999999838e+00 4.928530000000000300e+00 3.193599999999999994e+00 4.463280000000000136e+00 7.183959999999999901e+00 3.538520000000000110e+00 5.333709999999999951e+00 3.387179999999999858e+00 8.046839999999999549e+00 4.738279999999999603e+00 7.239539999999999864e+00 6.610730000000000217e+00 1.227919999999999900e+00 4.892890000000000406e+00 1.309109999999999996e+00 6.310570000000000235e+00 7.050209999999999866e+00 2.081859999999999822e+00 3.295869999999999855e+00 9.642600000000000060e-01 7.155899999999999483e-01 1.132840000000000069e+00 7.378389999999999560e+00 7.585350000000000037e+00 3.351949999999999985e+00 7.737960000000000171e+00 5.599179999999999602e+00 4.929660000000000153e+00 4.138020000000000032e+00 1.737489999999999979e+00 3.028399999999999981e+00 1.589749999999999996e+00 4.393040000000000056e+00 6.716660000000000075e+00 3.028779999999999806e+00 2.495400000000000063e+00 5.465169999999999639e+00 6.805589999999999584e+00 5.090250000000000163e+00 7.099070000000000213e+00 3.251399999999999846e+00 7.141199999999999770e-01 1.053940000000000099e+00 5.259299999999999642e+00 6.840609999999999857e+00 5.543750000000000178e+00 5.939549999999999663e+00 7.280600000000000405e-01 1.033630000000000049e+00 4.628709999999999880e+00 7.234180000000000277e+00 2.918719999999999981e+00 7.403349999999999653e+00 8.086320000000000618e+00 6.763930000000000220e+00 2.415890000000000093e+00 3.113809999999999967e+00 2.649169999999999803e+00 6.962000000000000133e-02 3.274119999999999919e+00 1.059479999999999977e+00 5.254489999999999661e+00 3.170939999999999870e+00 1.384929999999999994e+00 1.358430000000000026e+00 2.052719999999999878e+00 6.803449999999999775e+00 4.641829999999999679e+00 6.342120000000000424e+00 7.558060000000000223e+00 9.798200000000000243e-01 1.026410000000000045e+00 4.848980000000000068e+00
7.500589999999999868e+00 7.631409999999999805e+00 4.306320000000000370e+00 6.727350000000000385e+00 2.327580000000000204e+00 4.683099999999999596e+00 3.879430000000000156e+00 6.286360000000000170e+00 1.102479999999999905e+00 1.221910000000000052e+00 1.862389999999999990e+00 2.951789999999999914e+00 5.241740000000000066e+00 7.424470000000000347e+00 5.387520000000000309e+00 3.011489999999999778e+00 2.805820000000000203e+00 7.041559999999999597e+00 3.198300000000000143e+00 7.746039999999999814e+00 6.404379999999999740e+00 3.491319999999999979e+00 7.629150000000000098e+00 3.113659999999999872e+00 2.969009999999999927e+00 5.305769999999999875e+00 3.114370000000000083e+00 8.599400000000000377e-01 3.022889999999999855e+00 6.230839999999999712e+00 1.997970000000000024e+00 6.907900000000000151e-01 9.294400000000000439e-01 7.560319999999999929e+00 4.632590000000000430e+00 3.001269999999999882e+00 1.930889999999999995e+00 1.437200000000000033e+00 4.921649999999999636e+00 1.821679999999999966e+00 5.302120000000000388e+00 4.369999999999999753e-03 4.952779999999999738e+00 4.093840000000000146e+00 9.047300000000000342e-01 5.123560000000000336e+00 1.004269999999999996e+00 3.788799999999999946e-01 5.938329999999999664e+00 6.771930000000000227e+00 2.028200000000000003e-01 6.520850000000000257e+00 5.253490000000000215e+00 5.654779999999999696e+00 -9.719999999999999474e-02 2.501300000000000190e-01 6.634680000000000355e+00 3.966000000000000081e-02 7.105909999999999727e+00 1.948250000000000037e+00 4.130440000000000111e+00 5.283280000000000420e+00 6.224260000000000126e+00 5.439560000000000173e+00 1.003740000000000077e+00 2.853920000000000012e+00 7.351759999999999629e+00 4.175830000000000375e+00 4.167199999999999793e-01 4.158299999999999663e+00 2.049240000000000173e+00 5.057719999999999771e+00 3.008340000000000014e+00 3.922089999999999854e+00 5.009190000000000254e+00 3.406449999999999978e+00 2.415599999999999969e+00 2.842620000000000147e+00 5.121920000000000250e+00 5.662060000000000315e+00 3.704740000000000144e+00 6.980680000000000440e+00 2.044230000000000214e+00 1.477430000000000021e+00 1.505719999999999947e+00 3.793660000000000032e+00 1.372689999999999966e+00 5.000790000000000290e+00 3.828850000000000087e+00 3.457619999999999916e+00 5.945689999999999920e+00 2.748289999999999900e+00 6.773100000000000342e+00 1.717449999999999921e+00 6.390320000000000000e+00 4.774519999999999875e+00
