5.570300000000000251e-01 3.687710000000000043e+00 6.059289999999999843e+00 1.348959999999999937e+00 1.366759999999999975e+00 5.116340000000000110e+00 1.853699999999999903e+00 1.266200000000000103e-01 1.418139999999999956e+00 5.383000000000000007e-01 4.488000000000000322e-02 1.814910000000000068e+01 8.232599999999999918e-01 1.444409999999999972e+00 7.831249999999999822e+00 3.615590000000000082e+00 1.340519999999999934e+00 5.340049999999999741e+00 2.809999999999999998e-02 1.201429999999999998e+00 9.811730000000000729e+00 2.864590000000000192e+00 3.707900000000000085e-01 1.826340000000000074e+01 2.529689999999999994e+00 3.170760000000000023e+00 4.250759999999999650e+00 3.184880000000000155e+00 3.375039999999999818e+00 9.251730000000000231e+00 1.520829999999999904e+00 2.334480000000000111e+00 2.196509999999999962e+00 2.646799999999999820e+00 2.699329999999999785e+00 1.849660000000000082e+01 2.868689999999999962e+00 3.497560000000000002e+00 7.151699999999999946e+00 3.360500000000000154e-01 3.823799999999999866e+00 3.738900000000000112e+00 3.785250000000000004e+00 2.085480000000000000e+00 1.978969999999999896e+00 1.145459999999999923e+00 3.222550000000000026e+00 1.020679999999999943e+01
1.970739999999999936e+00 5.301099999999999701e-01 6.031909999999999883e+00 3.550520000000000120e+00 2.918810000000000127e+00 1.965190000000000126e+01 4.899999999999999842e-04 3.543489999999999807e+00 6.624570000000000292e+00 4.648760000000000225e+00 4.437699999999999978e-01 1.952400000000000091e+01 1.249810000000000088e+00 7.503999999999999559e-01 2.591489999999999849e+00 2.342760000000000176e+00 1.128270000000000106e+00 3.023999999999999952e-02 2.855550000000000033e+00 2.223339999999999872e+00 3.595009999999999817e+00 1.389610000000000012e+00 3.786820000000000075e+00 1.053439999999999976e+01 4.271289999999999587e+00 1.859720000000000040e+00 1.008960000000000079e+01 1.753929999999999989e+00 3.002229999999999954e+00 1.262299999999999978e+00 2.581189999999999873e+00 2.646689999999999987e+00 5.848090000000000011e+00 1.430200000000000082e-01 4.008140000000000036e+00 4.431770000000000209e+00 3.288440000000000030e+00 4.004059999999999953e+00 1.016310000000000002e+01 3.808019999999999960e+00 7.719899999999999540e-01 1.963179999999999925e+00 1.857000000000000040e-01 1.767549999999999955e+00 4.827729999999999855e+00 2.099509999999999987e+00 2.434270000000000156e+00 8.388329999999999842e+00
3.042850000000000055e+00 4.138989999999999725e+00 9.211500000000000243e-01 1.273600000000000010e-01 2.122500000000000053e+00 5.192639999999999922e+00 1.483160000000000034e+00 3.585960000000000036e+00 3.580099999999999838e+00 1.065499999999999892e+00 2.005800000000000083e-01 6.453330000000000233e+00 4.293309999999999960e+00 3.852259999999999796e+00 9.272460000000000591e+00 3.000329999999999941e+00 1.279959999999999987e+00 2.617480000000000029e+00 3.709659999999999958e+00 1.215449999999999919e+00 1.061940000000000062e+01 3.381460000000000132e+00 3.296300000000000008e+00 3.388720000000000176e+00 1.461140000000000105e+00 1.957920000000000105e+00 1.944660000000000011e+01 6.871599999999999930e-01 1.532880000000000020e+00 2.963940000000000019e+00 2.475589999999999957e+00 2.036579999999999835e+00 6.235249999999999737e+00 3.285610000000000142e+00 4.334690000000000154e+00 5.365359999999999907e+00 5.237399999999999833e-01 4.391680000000000028e+00 4.885599999999999943e-01 4.585230000000000139e+00 2.087930000000000064e+00 7.584200000000000053e+00 2.736299999999999955e+00 1.334049999999999958e+00 8.957000000000000739e+00 4.223530000000000229e+00 2.168639999999999901e+00 9.958799999999999875e-01
1.242240000000000011e+00 1.263630000000000031e+00 6.364539999999999864e+00 2.946279999999999788e+00 5.520399999999999752e-01 1.156699999999999950e-01 2.491560000000000219e+00 1.580600000000000060e-01 3.627870000000000150e+00 1.102519999999999945e+00 2.004739999999999966e+00 3.044999999999999929e+00 1.047090000000000076e+00 2.052400000000000058e-01 1.646669999999999945e+01 3.516910000000000203e+00 1.207140000000000102e+00 1.091760000000000019e+01 3.094250000000000167e+00 2.627180000000000071e+00 2.017040000000000166e+00 2.948399999999999910e-01 5.380899999999999572e-01 9.076650000000000773e+00 1.302899999999999892e-01 2.297639999999999905e+00 1.797869999999999990e+01 3.119930000000000092e+00 2.200689999999999813e+00 4.836619999999999919e+00 1.036810000000000009e+00 2.475249999999999950e+00 8.574210000000000775e+00 6.340599999999999570e-01 4.071909999999999918e+00 2.021520000000000206e+00 3.849500000000000144e-01 3.670240000000000169e+00 4.577609999999999957e+00 2.293190000000000062e+00 5.361399999999999499e-01 8.948890000000000455e+00 3.353520000000000056e+00 2.830830000000000179e+00 9.279260000000000730e+00 2.365790000000000060e+00 2.338340000000000085e+00 1.636799999999999855e+01
3.586869999999999781e+00 2.996699999999999919e-01 1.056060000000000088e+01 1.546499999999999986e+00 1.013079999999999981e+00 5.960600000000000342e+00 6.931399999999999784e-01 3.591040000000000010e+00 1.084810000000000052e+01 3.685779999999999834e+00 2.468059999999999921e+00 6.191760000000000375e+00 2.232149999999999856e+00 2.816559999999999953e+00 2.773359999999999825e+00 8.987000000000000544e-02 2.266950000000000021e+00 3.851399999999999824e-01 8.014200000000000212e-01 3.250129999999999963e+00 4.657860000000000333e+00 4.533059999999999867e+00 4.232440000000000424e+00 2.321950000000000180e+00 3.497189999999999799e+00 2.838600000000000012e-01 7.139590000000000103e+00 1.013859999999999983e+00 2.260600000000000109e-01 1.854200000000000159e+01 3.112359999999999793e+00 1.903799999999999937e-01 6.525999999999999579e-01 4.319020000000000081e+00 2.283129999999999882e+00 3.215100000000000069e+00 1.740899999999999948e-01 1.140709999999999891e+00 8.535019999999999385e+00 2.588729999999999976e+00 6.238500000000000156e-01 3.666589999999999794e+00 2.507470000000000088e+00 2.494769999999999932e+00 4.400499999999999967e-01 1.075990000000000002e+00 3.570570000000000022e+00 7.191609999999999836e+00
4.367130000000000400e+00 1.609120000000000106e+00 9.994849999999999568e+00 4.544469999999999565e+00 5.904599999999999849e-01 7.565830000000000055e+00 3.407919999999999838e+00 3.770980000000000221e+00 9.374029999999999418e+00 1.976969999999999894e+00 3.263250000000000206e+00 3.993440000000000101e+00 2.557659999999999823e+00 2.864059999999999828e+00 1.577730000000000077e+00 3.537889999999999979e+00 2.885470000000000201e+00 1.844050000000000011e+01 1.339299999999999935e-01 3.790360000000000174e+00 4.767769999999999619e+00 2.572200000000000042e-01 3.032760000000000122e+00 2.014380000000000059e+00 2.862270000000000092e+00 3.697960000000000136e+00 6.490980000000000416e+00 1.819020000000000081e+00 2.650000000000000133e-01 8.090600000000000014e-01 4.348810000000000286e+00 6.458099999999999952e-01 3.116229999999999833e+00 3.589049999999999851e+00 1.342039999999999900e+00 5.450129999999999697e+00 2.151419999999999888e+00 1.077360000000000095e+00 8.011540000000000106e+00 2.008160000000000167e+00 1.219780000000000086e+00 3.341009999999999813e+00 1.350940000000000030e+00 2.116579999999999906e+00 3.209000000000000047e-02 1.169079999999999897e+00 2.972820000000000018e+00 8.102460000000000662e+00
3.875210000000000043e+00 2.780149999999999899e+00 7.493560000000000443e+00 1.634959999999999969e+00 3.468249999999999833e+00 1.665030000000000010e+00 1.459759999999999946e+00 1.554650000000000087e+00 1.557680000000000042e+01 3.477829999999999977e+00 9.568999999999999728e-01 6.482999999999999874e-02 3.232130000000000170e+00 2.866979999999999862e+00 4.975360000000000227e+00 8.225999999999999979e-02 2.361069999999999780e+00 1.005090000000000039e+01 2.951620000000000132e+00 2.235580000000000123e+00 1.456470000000000020e+01 4.012550000000000061e+00 5.296100000000000252e-01 8.645189999999999486e+00 1.893790000000000084e+00 3.496900000000000008e-01 9.002100000000000435e+00 1.006399999999999961e+00 2.580000000000000071e-01 5.125429999999999708e+00 3.404920000000000169e+00 2.016579999999999817e+00 1.243590000000000018e+01 1.200080000000000036e+00 2.099209999999999798e+00 3.629960000000000075e+00 4.023830000000000240e+00 3.416600000000000192e-01 3.309349999999999792e+00 2.930680000000000174e+00 8.076400000000000245e-01 6.224529999999999674e+00 3.733359999999999790e+00 1.092800000000000021e-01 1.317650000000000077e+01 3.207800000000000207e+00 2.102770000000000028e+00 2.276040000000000063e+00
2.546700000000000075e-01 4.217450000000000365e+00 7.574799999999999756e+00 2.226899999999999991e-01 3.278939999999999966e+00 2.506880000000000219e+00 1.347920000000000007e+00 2.284870000000000179e+00 6.800010000000000332e+00 3.058699999999999752e-01 4.196699999999999875e+00 4.993389999999999773e+00 5.830899999999999972e-01 3.690729999999999844e+00 1.003870000000000040e+01 2.318430000000000213e+00 5.011299999999999644e-01 5.068799999999999972e-01 2.739459999999999784e+00 3.000700000000000034e-01 6.622139999999999915e+00 2.173459999999999948e+00 2.331890000000000018e+00 4.425609999999999822e+00 3.532960000000000100e+00 2.346699999999999786e+00 5.887010000000000076e+00 3.989730000000000221e+00 1.740560000000000107e+00 9.299239999999999284e+00 2.416529999999999845e+00 3.556659999999999933e+00 8.820750000000000313e+00 2.140089999999999826e+00 2.263500000000000068e+00 2.008109999999999840e+00 2.322659999999999947e+00 7.492600000000000371e-01 3.196720000000000006e+00 1.538129999999999997e+00 2.970969999999999889e+00 1.660490000000000066e+01 1.769000000000000086e-02 8.286400000000000432e-01 1.651170000000000115e+01 3.743780000000000108e+00 2.757690000000000197e+00 2.385599999999999943e-01
1.706579999999999986e+00 8.957000000000000517e-01 3.130269999999999886e+00 2.867090000000000138e+00 3.534759999999999902e+00 9.969329999999999359e+00 7.432199999999999918e-01 2.764860000000000095e+00 2.972480000000000011e+00 3.959589999999999943e+00 3.805639999999999912e+00 1.724599999999999866e+01 3.646389999999999798e+00 3.382600000000000051e-01 1.818759999999999932e+00 3.993110000000000159e+00 2.029920000000000169e+00 4.770629999999999704e+00 2.612340000000000106e+00 3.325880000000000170e+00 6.797950000000000159e+00 2.155450000000000088e+00 1.340969999999999995e+00 8.585860000000000269e+00 2.141789999999999861e+00 1.238010000000000055e+00 6.117379999999999818e+00 2.744050000000000100e+00 3.967000000000000082e+00 4.828280000000000349e+00 9.009700000000000486e-01 3.434180000000000010e+00 8.765639999999999432e+00 4.366920000000000357e+00 1.542010000000000103e+00 7.388289999999999580e+00 2.192550000000000221e+00 3.092659999999999965e+00 1.702159999999999940e+01 3.969409999999999883e+00 1.948020000000000085e+00 4.107000000000000234e-02 4.388829999999999565e+00 1.029709999999999903e+00 1.000590000000000046e+01 1.458369999999999944e+00 1.804199999999999970e-01 4.166599999999999748e-01
4.253379999999999939e+00 2.940760000000000041e+00 2.793280000000000207e+00 2.372749999999999915e+00 2.498000000000000220e+00 1.616999999999999993e+00 4.076290000000000191e+00 3.566900000000000071e-01 1.616750000000000043e+01 2.353950000000000209e+00 3.166710000000000136e+00 9.351259999999999906e+00 3.041869999999999852e+00 1.761169999999999902e+00 4.539889999999999759e+00 1.680999999999999994e-01 3.121910000000000185e+00 9.573829999999999174e+00 2.140480000000000160e+00 3.948830000000000062e+00 5.122320000000000206e+00 4.374310000000000365e+00 8.968800000000000106e-01 1.581949999999999967e+00 4.254000000000000004e-01 2.634100000000000108e+00 2.858499999999999930e-01 2.655879999999999797e+00 1.972979999999999956e+00 6.709299999999999820e+00 1.793570000000000109e+00 4.265080000000000204e+00 7.860999999999999932e-02 1.049919999999999964e+00 8.382699999999999596e-01 9.148360000000000269e+00 2.230960000000000054e+00 3.565499999999999781e-01 2.426849999999999952e+00 3.514559999999999906e+00 5.449399999999999800e-01 8.481519999999999726e+00 4.349890000000000256e+00 3.866560000000000219e+00 5.037860000000000227e+00 5.098300000000000054e-01 1.298540000000000028e+00 6.530400000000000205e+00
2.339309999999999778e+00 3.255539999999999878e+00 5.657700000000000173e+00 1.481500000000000039e-01 1.400330000000000075e+00 9.298560000000000159e+00 2.164620000000000211e+00 4.173289999999999722e+00 7.843029999999999724e+00 1.306939999999999991e+00 1.076230000000000020e+00 4.742820000000000036e+00 2.296460000000000168e+00 3.735700000000000021e+00 1.960010000000000030e+00 2.332250000000000156e+00 1.902649999999999952e+00 8.964380000000000237e+00 1.058780000000000054e+00 2.932850000000000179e+00 1.754469999999999885e+01 4.152599999999999625e+00 6.485999999999999543e-01 6.504050000000000331e+00 3.157849999999999824e+00 1.726310000000000011e+00 1.796290000000000120e+01 4.370589999999999975e+00 2.762439999999999785e+00 7.176989999999999981e+00 3.347259999999999902e+00 4.359700000000000242e-01 3.734609999999999985e+00 6.915700000000000180e-01 2.915979999999999794e+00 3.955259999999999998e+00 3.761880000000000113e+00 2.072159999999999780e+00 2.404090000000000060e+00 3.300790000000000113e+00 3.843560000000000088e+00 9.897990000000000066e+00 1.004920000000000035e+00 1.043800000000000061e+00 4.678599999999999981e-01 3.106370000000000076e+00 4.090340000000000309e+00 1.814630000000000010e+01
7.869300000000000184e-01 3.363300000000000178e-01 1.643540000000000001e+00 4.158330000000000304e+00 3.897839999999999971e+00 8.635699999999999932e+00 2.235059999999999825e+00 1.840430000000000010e+00 1.581090000000000018e+01 2.337979999999999947e+00 1.244699999999999918e+00 5.170169999999999710e+00 4.272310000000000052e+00 1.254590000000000094e+00 6.536260000000000403e+00 2.761839999999999851e+00 3.842579999999999885e+00 1.437209999999999965e+01 2.295230000000000103e+00 1.664779999999999927e+00 8.399060000000000414e+00 4.222000000000000197e-01 2.676709999999999923e+00 2.032000000000000126e-02 2.916259999999999852e+00 1.387400000000000022e-01 1.700349999999999895e+01 1.789000000000000035e-01 1.405680000000000041e+00 3.952620000000000022e+00 1.412099999999999911e+00 3.382620000000000182e+00 4.003300000000000303e+00 1.876449999999999951e+00 3.443270000000000053e+00 6.641729999999999912e+00 2.342140000000000111e+00 1.781379999999999963e+00 1.187679999999999936e+01 3.183100000000000041e+00 2.457660000000000178e+00 1.654679999999999929e+00 3.828440000000000065e+00 3.497180000000000177e+00 4.955199999999999605e+00 2.762249999999999872e+00 2.518099999999999783e-01 1.054010000000000069e+01
1.476730000000000098e+00 9.969999999999999696e-03 7.118470000000000297e+00 2.963909999999999823e+00 4.430659999999999599e+00 2.858960000000000168e+00 9.623500000000000387e-01 3.457230000000000025e+00 3.154009999999999980e+00 4.655870000000000175e+00 2.806109999999999882e+00 8.112170000000000769e+00 2.770199999999999996e+00 2.448059999999999903e+00 6.564879999999999605e+00 2.025999999999999801e+00 2.774420000000000108e+00 1.011100000000000110e+00 2.251700000000000035e+00 1.444649999999999990e+00 8.894949999999999690e+00 4.677179999999999893e+00 8.905499999999999527e-01 9.791880000000000805e+00 1.861860000000000070e+00 8.510499999999999732e-01 5.084439999999999849e+00 4.170740000000000336e+00 3.905619999999999870e+00 7.629099999999999770e-01 3.287000000000000338e-02 1.155380000000000074e+00 1.867150000000000087e+00 4.339990000000000236e+00 2.838299999999999823e+00 4.931980000000000253e+00 2.091590000000000060e+00 1.217400000000000010e-01 1.475799999999999912e+01 1.671319999999999917e+00 5.257699999999999596e-01 7.771200000000000330e-01 3.952150000000000052e+00 6.223999999999999533e-01 6.650710000000000122e+00 9.483000000000000318e-01 3.060750000000000082e+00 1.037950000000000017e+01
1.604589999999999961e+00 3.300860000000000127e+00 5.472299999999999720e+00 4.274099999999999788e+00 3.202599999999999891e+00 3.579330000000000123e+00 3.424850000000000172e+00 8.239199999999999857e-01 9.478379999999999583e+00 3.777880000000000127e+00 3.069739999999999913e+00 6.510699999999999932e+00 4.415090000000000181e+00 3.100820000000000132e+00 1.040700000000000003e+01 2.290700000000000180e+00 4.186589999999999812e+00 2.590370000000000061e+00 4.412969999999999615e+00 3.441159999999999997e+00 1.328189999999999982e+00 2.239959999999999951e+00 3.729719999999999924e+00 1.161369999999999969e+01 5.261700000000000266e-01 4.135200000000000209e+00 8.316800000000000637e+00 1.333550000000000013e+00 2.027470000000000105e+00 8.910740000000000549e+00 2.450149999999999828e+00 8.218900000000000095e-01 7.091549999999999798e+00 6.137799999999999923e-01 9.655700000000000394e-01 1.187219999999999942e+01 1.769000000000000086e-02 1.577390000000000070e+00 2.405940000000000190e+00 3.490149999999999864e+00 1.135790000000000077e+00 4.652849999999999930e+00 2.927340000000000053e+00 1.388430000000000053e+00 9.161999999999999311e-02 1.512170000000000014e+00 1.868900000000000006e+00 3.554460000000000175e+00
8.939399999999999569e-01 3.110899999999999777e-01 1.771099999999999897e+00 4.226399999999999935e+00 4.089170000000000194e+00 8.465569999999999595e+00 2.204559999999999853e+00 1.904989999999999961e+00 1.584009999999999962e+01 2.199160000000000004e+00 1.118549999999999933e+00 5.275420000000000442e+00 4.244170000000000442e+00 1.162700000000000067e+00 6.400420000000000442e+00 2.766090000000000160e+00 3.770389999999999908e+00 1.420190000000000019e+01 2.272539999999999782e+00 1.700679999999999970e+00 8.384510000000000574e+00 4.928299999999999903e-01 2.767590000000000217e+00 1.687362999999999857e+01 2.977230000000000043e+00 3.520000000000000125e-03 1.159999999999999920e-02 4.864999999999999880e-02 1.265540000000000109e+00 3.953870000000000218e+00 1.484960000000000058e+00 3.449570000000000025e+00 4.071380000000000443e+00 1.956620000000000026e+00 3.466629999999999878e+00 6.748850000000000016e+00 2.340359999999999996e+00 1.811690000000000023e+00 1.199280000000000079e+01 3.180559999999999832e+00 2.410250000000000004e+00 1.500820000000000043e+00 3.754179999999999851e+00 3.618259999999999810e+00 5.058869999999999756e+00 2.727269999999999861e+00 2.656800000000000272e-01 1.066510000000000069e+01
1.517560000000000020e+00 9.944899999999999851e-01 8.947089999999999321e+00 1.603930000000000078e+00 2.576760000000000161e+00 1.115329999999999977e+01 3.971099999999999852e+00 1.474920000000000009e+00 9.729810000000000514e+00 1.897000000000000075e-02 4.103899999999999770e-01 4.967649999999999899e+00 3.944020000000000081e+00 1.072160000000000002e+00 7.612470000000000070e+00 2.061300000000000077e-01 3.541599999999999859e+00 9.109909999999999286e+00 2.061290000000000067e+00 1.728830000000000089e+00 1.275089999999999968e+01 2.100400000000000045e+00 3.152010000000000201e+00 7.573159999999999670e+00 1.848589999999999955e+00 2.038440000000000030e+00 1.682530000000000081e+00 4.166699999999999626e+00 1.752080000000000082e+00 9.394299999999999873e-01 3.755949999999999900e+00 4.374209999999999710e+00 1.259549999999999947e+01 4.172369999999999912e+00 2.245019999999999794e+00 3.443480000000000096e+00 2.391589999999999883e+00 4.114460000000000228e+00 3.558780000000000054e+00 1.069939999999999891e+00 4.057450000000000223e+00 1.237599999999999950e-01 2.451299999999999868e-01 4.270880000000000010e+00 2.616709999999999869e+00 2.383830000000000116e+00 1.732660000000000089e+00 4.912289999999999601e+00
1.895620000000000083e+00 1.841909999999999936e+00 8.534940000000000637e+00 1.878300000000000081e+00 1.111499999999999932e+00 2.162799999999999834e+00 3.570110000000000117e+00 3.175530000000000186e+00 3.440939999999999888e+00 4.371620000000000061e+00 1.112889999999999935e+00 6.912259999999999849e+00 4.336610000000000298e+00 1.306929999999999925e+00 4.559940000000000104e+00 8.185000000000000608e-02 2.996440000000000214e+00 1.814999999999999947e+00 4.496579999999999799e+00 3.348829999999999973e+00 8.476839999999999264e+00 1.236509999999999998e+00 4.356930000000000192e+00 1.028020000000000067e+01 8.751000000000000445e-02 3.161560000000000148e+00 5.914259999999999629e+00 8.828099999999999836e-01 1.393540000000000001e+00 1.618459999999999965e+01 1.868330000000000046e+00 1.022380000000000067e+00 5.180579999999999963e+00 4.439280000000000115e+00 3.690800000000000192e-01 2.310649999999999871e+00 2.267729999999999801e+00 3.734020000000000117e+00 7.516500000000000403e-01 3.127709999999999990e+00 1.563029999999999919e+00 1.640119999999999933e+01 2.275949999999999918e+00 4.144980000000000331e+00 7.370180000000000398e+00 4.036240000000000272e+00 1.180099999999999927e+00 9.261499999999999844e+00
1.182539999999999925e+00 2.432400000000000118e-01 1.921499999999999986e+00 1.770000000000000046e-02 2.755900000000000016e-01 8.250349999999999184e+00 2.666949999999999932e+00 1.964639999999999942e+00 1.564559999999999995e+01 1.847650000000000015e+00 1.432630000000000070e+00 5.475450000000000372e+00 4.198450000000000237e+00 1.462990000000000013e+00 6.353790000000000049e+00 2.713150000000000173e+00 3.737229999999999830e+00 1.385829999999999984e+01 2.229400000000000048e+00 1.537870000000000070e+00 8.397660000000000124e+00 6.067399999999999460e-01 3.076379999999999892e+00 1.661260000000000048e+01 2.848320000000000185e+00 4.110929999999999751e+00 1.701914999999999978e+01 4.024269999999999570e+00 1.290650000000000075e+00 3.667920000000000069e+00 1.683340000000000058e+00 3.280829999999999913e+00 3.978009999999999824e+00 2.035730000000000040e+00 3.549929999999999808e+00 7.177800000000000402e+00 2.319560000000000066e+00 2.211640000000000050e+00 1.259299999999999997e+01 3.078460000000000196e+00 1.939200000000000035e+00 1.349860000000000060e+00 3.631920000000000037e+00 3.115429999999999922e+00 5.318859999999999921e+00 2.685369999999999813e+00 4.026290000000000369e+00 1.061739999999999995e+01
1.562449999999999894e+00 1.214699999999999946e-01 7.185159999999999769e+00 2.980620000000000047e+00 1.177200000000000052e-01 2.839659999999999851e+00 9.201399999999999579e-01 3.285210000000000186e+00 3.210859999999999825e+00 5.806999999999999662e-02 2.910600000000000076e+00 8.145450000000000301e+00 2.843669999999999920e+00 2.496179999999999843e+00 6.717259999999999565e+00 2.059779999999999944e+00 2.861320000000000086e+00 1.065979999999999928e+00 2.170440000000000147e+00 1.686299999999999910e+00 8.926410000000000622e+00 4.578560000000000407e+00 7.974700000000000122e-01 9.783730000000000260e+00 1.778790000000000093e+00 7.666800000000000281e-01 4.943529999999999980e+00 4.260399999999999743e+00 3.829680000000000195e+00 7.512999999999999678e-01 1.694100000000000050e-01 1.114079999999999959e+00 1.947699999999999987e+00 4.368730000000000224e+00 2.700520000000000032e+00 4.885069999999999801e+00 2.013830000000000009e+00 4.431809999999999583e+00 1.464739999999999931e+01 1.733170000000000099e+00 3.683299999999999907e-01 6.568899999999999739e-01 3.880360000000000031e+00 7.127000000000000002e-01 6.723810000000000286e+00 7.609500000000000153e-01 3.142580000000000151e+00 1.028800000000000026e+01
9.417900000000000160e-01 1.209570000000000034e+00 9.634009999999999962e+00 2.631700000000000150e-01 2.185880000000000045e+00 1.150299999999999934e-01 1.390959999999999974e+00 5.147000000000000186e-02 9.437699999999999978e-01 1.147780000000000022e+00 3.778589999999999893e+00 6.590910000000000046e+00 2.898000000000000131e+00 4.092509999999999870e+00 5.155940000000000190e+00 1.999270000000000103e+00 1.361070000000000002e+00 1.852029999999999887e+01 2.026660000000000128e+00 1.822869999999999990e+00 7.595729999999999649e+00 9.023700000000000054e-01 3.245010000000000172e+00 8.778529999999999944e+00 3.492170000000000218e+00 3.632229999999999848e+00 7.447040000000000326e+00 7.134200000000000541e-01 1.883699999999999930e+00 3.330200000000000049e+00 2.818420000000000147e+00 2.556760000000000144e+00 1.721519999999999939e+00 1.660250000000000004e+00 3.296390000000000153e+00 1.826960000000000051e+01 3.038190000000000168e+00 2.210420000000000051e+00 9.706960000000000477e+00 2.945460000000000189e+00 1.975030000000000063e+00 4.246780000000000221e+00 4.302699999999999747e+00 1.361210000000000031e+00 6.519730000000000025e+00 4.235039999999999694e+00 4.113349999999999618e+00 3.300110000000000099e+00
3.770179999999999865e+00 4.115669999999999717e+00 1.518079999999999963e+01 3.993930000000000202e+00 4.101099999999999746e+00 1.286149999999999949e+01 1.402590000000000003e+00 2.130479999999999929e+00 6.872580000000000133e+00 4.211669999999999803e+00 1.708609999999999962e+00 2.023880000000000123e+00 2.995350000000000179e+00 1.712849999999999984e+00 1.197620000000000040e+01 1.446159999999999890e+00 1.259400000000000075e+00 1.407949999999999946e+01 4.188810000000000144e+00 1.635650000000000048e+00 9.924720000000000653e+00 4.291549999999999976e+00 1.942579999999999973e+00 1.413770000000000060e+01 3.812390000000000168e+00 1.870719999999999938e+00 7.371839999999999726e+00 1.588649999999999896e+00 4.036400000000000432e+00 1.206499999999999950e+01 4.950399999999999801e-01 4.045110000000000205e+00 5.632030000000000314e+00 7.487300000000000066e-01 3.922169999999999934e+00 8.148289999999999367e+00 2.493700000000000028e+00 3.976339999999999986e+00 6.156159999999999854e+00 1.987200000000000077e+00 1.368190000000000017e+00 9.264239999999999142e+00 3.325860000000000039e+00 3.871649999999999814e+00 9.978550000000000253e+00 3.094860000000000166e+00 1.387180000000000080e+00 4.494060000000000166e+00
4.882199999999999873e-01 3.641989999999999839e+00 6.390010000000000190e+00 1.384030000000000094e+00 1.310019999999999962e+00 4.790060000000000429e+00 1.607609999999999983e+00 6.539000000000000368e-02 1.083990000000000009e+00 5.434999999999999831e-01 3.967169999999999863e+00 1.849159999999999826e+01 1.030860000000000110e+00 1.550010000000000110e+00 7.771149999999999558e+00 3.616960000000000175e+00 1.621860000000000079e+00 5.634240000000000137e+00 4.244209999999999816e+00 1.143599999999999950e+00 1.002800000000000047e+01 2.864660000000000206e+00 9.997500000000000275e-01 1.867160000000000153e+01 2.690479999999999983e+00 2.993160000000000043e+00 4.064890000000000114e+00 3.203279999999999905e+00 3.386080000000000201e+00 9.284530000000000172e+00 1.739889999999999937e+00 2.298900000000000166e+00 2.179720000000000102e+00 2.783020000000000049e+00 2.896949999999999914e+00 1.873780000000000001e+01 2.765890000000000182e+00 3.619270000000000209e+00 7.018659999999999677e+00 1.794300000000000062e-01 3.813779999999999948e+00 3.500799999999999912e+00 3.954299999999999926e+00 1.684860000000000024e+00 1.847869999999999902e+00 9.974199999999999733e-01 3.022940000000000182e+00 9.766439999999999344e+00
1.631099999999999994e+00 2.275000000000000078e-01 7.282740000000000435e+00 2.985269999999999868e+00 2.631399999999999850e-01 2.833619999999999806e+00 9.041099999999999692e-01 3.151419999999999888e+00 3.200629999999999864e+00 1.502699999999999869e-01 2.996360000000000134e+00 8.132099999999999440e+00 2.793289999999999829e+00 2.692989999999999995e+00 6.857429999999999914e+00 2.102949999999999875e+00 2.763920000000000154e+00 1.154530000000000056e+00 2.112699999999999800e+00 1.925179999999999891e+00 8.972839999999999705e+00 4.481440000000000090e+00 7.374899999999999789e-01 9.719400000000000261e+00 1.685920000000000085e+00 6.999499999999999611e-01 4.772350000000000314e+00 4.329019999999999868e+00 3.676099999999999923e+00 7.121300000000000407e-01 2.844400000000000261e-01 1.214879999999999960e+00 2.137509999999999799e+00 4.359200000000000408e+00 2.536239999999999828e+00 4.905890000000000306e+00 1.934579999999999966e+00 4.264800000000000146e+00 1.460210000000000008e+01 1.889539999999999997e+00 3.371700000000000252e-01 4.064699999999999980e-01 3.906439999999999912e+00 6.452999999999999847e-01 6.793330000000000091e+00 5.890999999999999570e-01 3.210220000000000073e+00 1.023509999999999920e+01
7.196099999999999719e-01 4.373389999999999667e+00 8.722800000000000553e-01 1.304700000000000026e-01 2.930369999999999919e+00 4.312549999999999883e+00 4.600419999999999732e+00 6.369099999999999762e-01 3.623470000000000191e+00 1.303460000000000063e+00 1.580100000000000116e-01 6.388230000000000075e+00 1.232909999999999950e+00 3.065170000000000172e+00 1.007339999999999947e+01 2.285060000000000091e+00 1.991230000000000055e+00 4.675040000000000084e+00 3.126570000000000071e+00 4.328909999999999592e+00 8.873039999999999594e+00 2.036160000000000192e+00 3.735489999999999977e+00 3.096540000000000070e+00 1.694000000000000020e-02 1.970930000000000071e+00 1.930999999999999872e+01 1.429600000000000037e-01 2.639909999999999979e+00 1.961410000000000098e+00 3.499460000000000015e+00 4.034139999999999837e+00 5.732870000000000132e+00 3.677280000000000104e+00 1.737640000000000073e+00 6.846269999999999634e+00 3.372219999999999995e+00 4.018659999999999677e+00 3.720100000000000073e-01 7.916999999999999593e-01 1.737200000000000133e-01 9.003439999999999444e+00 1.571730000000000071e+00 2.115089999999999915e+00 7.618970000000000020e+00 2.326080000000000148e+00 1.626800000000000024e+00 1.322419999999999929e+00
2.030330000000000190e+00 4.096490000000000187e+00 3.813140000000000196e+00 3.731999999999999762e-01 2.165470000000000006e+00 5.369150000000000311e+00 3.173900000000000055e-01 1.875790000000000068e+00 8.236459999999999226e+00 1.577199999999999991e-01 2.682630000000000070e+00 1.189889999999999937e+01 3.069339999999999957e+00 1.172029999999999905e+00 1.864370000000000083e+00 3.234090000000000131e+00 3.515050000000000008e+00 7.326520000000000366e+00 1.183969999999999967e+00 1.796489999999999920e+00 2.942149999999999821e+00 2.635069999999999801e+00 3.186160000000000103e+00 8.758399999999999519e-01 3.792829999999999924e+00 1.788769999999999971e+00 1.336449999999999960e+01 4.467810000000000059e+00 4.286609999999999587e+00 4.246310000000000251e+00 1.336719999999999908e+00 8.615099999999999980e-01 4.979600000000000137e-01 2.560280000000000111e+00 1.186129999999999907e+00 7.393670000000000186e+00 2.855290000000000106e+00 1.853799999999999892e+00 5.040790000000000326e+00 7.621400000000000396e-01 4.397120000000000140e+00 6.481119999999999770e+00 2.435499999999999887e-01 3.582539999999999836e+00 1.189729999999999954e+00 2.406229999999999869e+00 1.850100000000000078e+00 9.677640000000000242e+00