1.098989999999999967e-01 -1.492297999999999902e+00 1.160994999999999999e+00 8.447989999999999666e-01 6.163509999999999822e-01 -2.269780000000000131e-01 3.897399999999999753e-01 1.035636999999999919e+00 -9.894629999999999814e-01 1.476401000000000074e+00 -5.460789999999999811e-01 4.408119999999999816e-01 7.688490000000000046e-01 4.358750000000000124e-01 -2.104394999999999794e+00 -5.926890000000000214e-01 -1.145980000000000054e-01 7.076879999999999837e-01 -1.037719000000000058e+00 -5.528159999999999741e-01 1.600640999999999980e+00 -5.311820000000000430e-01 6.361438999999999844e+00 -4.240780000000000105e-01 6.933460000000000178e-01 1.150022000000000100e+00 1.039059999999999984e-01 1.491022999999999987e+00 -3.169569999999999887e-01 1.707086000000000103e+00 2.410660000000000025e-01 -1.175826000000000038e+00 7.848230000000000484e-01 -9.105490000000000528e-01 -5.807596000000000203e+00 1.572535999999999934e+00 -8.060810000000000475e-01 4.063499999999999751e-02 -2.423150999999999833e+00 -5.364520000000000399e-01 2.917069999999999941e-01 -1.355880999999999892e+00 -7.556519999999999904e-01 -2.661140000000000172e-01 -2.205870000000000053e-01 -8.448010000000000241e-01 3.406170000000000031e-01 -3.339529999999999998e-01
-1.349289999999999934e-01 -1.198169999999999957e+00 2.157070000000000098e-01 1.346014999999999961e+00 7.838019999999999987e-01 -6.399599999999999733e-02 2.492159999999999931e-01 -3.403169999999999806e-01 1.302578999999999931e+00 7.473229999999999595e-01 8.236310000000000020e-01 3.257900000000000240e-01 1.098192000000000057e+00 -8.019099999999999839e-02 -1.160080000000000000e-01 -1.151048999999999989e+00 -2.526079000000000185e+00 1.612520000000000064e-01 -1.786780000000000035e-01 5.377659999999999663e-01 -4.170980000000000243e-01 -5.985046999999999784e+00 -6.755799999999999583e-01 3.418160000000000087e-01 3.025109999999999744e-01 -3.047920000000000074e-01 -3.548319999999999808e-01 -9.086579999999999657e-01 8.442520000000000024e-01 8.551239999999999952e-01 -4.408299999999999719e-02 1.391218999999999983e+00 5.964589999999999614e-01 -2.434929999999999872e-01 5.131899999999999656e-02 -1.606290999999999913e+00 5.581304000000000265e+00 9.462270000000000403e-01 -1.452137999999999929e+00 -1.029978999999999978e+00 -3.715959999999999819e-01 -2.734340000000000104e-01 2.842330000000000134e-01 -7.338100000000000178e-02 3.593319999999999848e-01 6.712100000000000011e-02 1.918880000000000030e-01 1.257359999999999867e-01
-2.697004999999999875e+00 -1.018609999999999932e-01 -3.428390000000000049e-01 -7.644900000000000306e-02 3.765950000000000131e-01 5.927000000000000324e-02 -5.979549999999999699e+00 1.957548000000000066e+00 1.067536000000000040e+00 -5.044910000000000228e-01 -1.353831000000000007e+00 1.888430000000000109e-01 5.188999999999999863e-02 -7.439620000000000122e-01 -5.849779999999999980e-01 -1.416752000000000011e+00 -1.751142999999999894e+00 1.215878000000000014e+00 3.041663999999999923e+00 4.295089999999999741e-01 4.946161000000000030e+00 7.024404999999999788e+00 -5.495799999999999991e-02 -1.367331999999999992e+00 1.909486999999999934e+00 9.361059999999999937e-01 -1.452749999999999875e-01 7.557700000000000529e-02 -1.166897000000000073e+00 -1.229449999999999987e-01 -1.907179999999999986e-01 1.124440000000000106e+00 2.675739999999999785e-01 4.329959999999999920e-01 3.326450000000000240e-01 1.031363999999999947e+00 1.869418000000000024e+00 -9.257699999999999818e-01 6.137399999999999800e-02 4.921320000000000139e-01 2.202399999999999844e-02 3.299560000000000271e-01 -3.442984000000000044e+00 5.964490000000000069e-01 -5.689783000000000257e+00 -5.896209999999999507e-01 3.231060000000000043e-01 -9.148039999999999505e-01
-1.284990000000000021e-01 -5.793299999999999839e-02 -1.625590000000000090e-01 -2.798780000000000157e-01 -8.499689999999999745e-01 1.317579999999999862e-01 6.994280000000000497e-01 4.997200000000000253e-02 1.464529999999999998e-01 -6.833700000000000330e-01 -2.312649999999999983e-01 7.476909999999999945e-01 -4.177770000000000095e-01 2.998730000000000007e-01 7.877159999999999718e-01 -3.013060000000000183e-01 -3.009629999999999805e-01 7.987710000000000088e-01 2.718229999999999813e-01 -6.292950000000000488e-01 -6.568370000000000042e-01 -3.779491999999999852e+00 -9.221920000000000117e-01 -7.493400000000000061e-02 8.169950000000000268e-01 6.029710000000000347e-01 -2.425339999999999996e-01 -1.058888999999999969e+00 -1.193637999999999977e+00 1.491949999999999943e-01 2.112505000000000077e+00 2.073825999999999947e+00 -1.427106999999999903e+00 -1.642220000000000069e-01 4.471180000000000154e-01 -1.241595999999999922e+00 8.291370000000000129e-01 1.512715000000000032e+00 4.299669999999999881e-01 2.937025000000000219e+00 1.268834000000000017e+00 -9.961689999999999712e-01 -9.801029999999999465e-01 -1.928536999999999946e+00 7.240630000000000122e-01 1.266220000000000123e-01 -1.415160000000000029e-01 8.861229999999999940e-01
-2.398013000000000172e+00 1.378255000000000008e+00 -7.654499999999999638e-01 -5.533069999999999933e-01 1.415116999999999958e+00 -4.704139999999999988e-01 2.371322000000000152e+00 -1.225187999999999944e+00 -3.350369999999999737e-01 -3.269589999999999996e-01 -2.407579999999999998e-01 -2.144610000000000127e-01 -1.627777000000000029e+00 5.455820000000000114e-01 -5.672350000000000447e-01 6.808969999999999745e-01 6.901329999999999965e-01 7.022969999999999491e-01 2.088824999999999932e+00 1.849993999999999916e+00 2.526632999999999907e+00 1.581922999999999968e+00 1.618694999999999995e+00 2.022499999999999992e-02 -1.676844000000000001e+00 -1.271646999999999972e+00 -1.507511000000000045e+00 -8.516740000000000421e-01 -7.612449999999999495e-01 -5.865599999999999981e-02 1.106047000000000002e+00 1.526434999999999986e+00 -1.922040000000000137e-01 -2.058089999999999919e-01 -3.938696999999999893e+00 -1.164106000000000085e+00 1.915770999999999891e+00 1.164131000000000027e+00 1.710444000000000075e+00 -3.850270000000000081e-01 -1.785009999999999930e-01 5.423550000000000315e-01 -1.948069000000000051e+00 -1.304451000000000027e+00 -7.178510000000000169e-01 2.286950000000000094e-01 -1.267856000000000094e+00 4.909709999999999908e-01
1.308219999999999938e-01 -1.017850000000000005e-01 -9.985610000000000319e-01 1.467899999999999934e-02 6.326920000000000321e-01 1.649140000000000050e-01 -4.186100000000000237e-02 -3.538629999999999831e-01 -5.292019999999999502e-01 3.396418999999999855e+00 1.046456999999999971e+00 -1.839220000000000022e-01 1.155178000000000038e+00 -1.839153000000000038e+00 6.311094999999999899e+00 2.548945999999999934e+00 2.619070000000000009e-01 -3.051572000000000173e+00 -2.228890999999999956e+00 -1.359467999999999899e+00 3.234126999999999974e+00 -7.661500000000000254e-02 -5.456950000000000411e-01 3.569880000000000275e-01 -4.004849999999999799e-01 -1.045044000000000084e+00 -3.369949999999999890e-01 -2.814679999999999960e-01 -2.208900000000000030e-01 3.081039999999999890e-01 -9.823370000000000157e-01 1.958353000000000010e+00 -2.035355000000000025e+00 -5.693279999999999452e-01 1.177538999999999891e+00 -2.832500000000000018e-01 1.648560000000000025e+00 -1.406282999999999950e+00 2.972279999999999922e-01 -5.259999999999999919e-04 -1.838230000000000031e+00 -5.322369999999999601e-01 -2.914864000000000122e+00 1.923893999999999993e+00 -3.301292999999999811e+00 -1.398230000000000084e+00 1.709570000000000034e+00 5.799309999999999743e-01
-2.039670000000000094e-01 -9.383719999999999839e-01 -5.722859999999999614e-01 -1.379871000000000070e+00 1.724798999999999971e+00 -9.559440000000000159e-01 -6.631906999999999996e+00 -1.646797999999999984e+00 3.238326999999999956e+00 2.323231999999999964e+00 -3.087676000000000087e+00 3.094857000000000191e+00 1.025920000000000026e-01 -3.409429999999999961e-01 -2.674329999999999763e-01 5.259699999999999792e-02 6.372839999999999616e-01 -7.987500000000000155e-02 4.118527000000000271e+00 4.515845999999999805e+00 -4.246120000000000339e+00 1.024569999999999981e+00 1.001738999999999935e+00 -1.517959999999999865e-01 -1.071819999999999995e+00 -3.152679999999999927e-01 3.385859999999999981e-01 -2.234420000000000017e-01 -8.404639999999999889e-01 8.487770000000000037e-01 -1.441040000000000099e-01 2.328689999999999927e+00 -3.014911999999999814e+00 -1.764370000000000105e-01 8.512089999999999934e-01 2.215479999999999949e-01 -5.724869999999999681e-01 -1.835016999999999898e+00 -6.283600000000000296e-01 1.010081999999999924e+00 -1.318429999999999880e-01 9.295649999999999746e-01 4.765519999999999756e-01 -2.275234999999999896e+00 1.582202000000000108e+00 1.295881000000000061e+00 3.520490000000000008e-01 -3.371350000000000180e-01
1.085984999999999978e+00 2.490410000000000124e-01 1.086702999999999975e+00 -1.225929999999999964e+00 7.733700000000000019e-01 7.909779999999999589e-01 -2.043889999999999874e-01 -3.756309999999999927e-01 2.976050000000000084e-01 4.615509999999999891e-01 5.907179999999999653e-01 -1.881839999999999902e-01 -1.338816999999999924e+00 6.381259999999999710e-01 3.443849999999999967e-01 1.908060000000000034e-01 8.446540000000000159e-01 3.571759999999999935e-01 -1.986823000000000006e+00 -3.247889999999999944e-01 -1.087269000000000041e+00 -3.687454999999999927e+00 3.735638999999999932e+00 -6.314950000000000285e-01 3.858760999999999886e+00 -6.991600000000000592e-02 3.015636999999999901e+00 -8.854000000000000759e-03 -7.423389999999999711e-01 -6.679059999999999997e-01 1.429195999999999911e+00 1.192919999999999953e-01 -5.304689999999999683e-01 4.801529999999999965e-01 5.362322999999999951e+00 -3.931051000000000073e+00 8.790529999999999733e-01 -9.075817000000000689e+00 1.241991000000000067e+00 -6.912519999999999776e-01 -1.322381999999999946e+00 -3.976729999999999987e-01 5.994760000000000089e-01 -9.594350000000000378e-01 3.578499999999999737e-02 1.585380000000000122e-01 5.571450000000000014e-01 2.637860000000000205e-01
3.224130000000000051e-01 -1.936638999999999999e+00 -1.472630000000000050e-01 6.257890000000000397e-01 -4.894249999999999989e-01 -3.720879999999999743e-01 -8.282899999999999707e-01 2.797731000000000190e+00 -8.675880000000000258e-01 6.241577999999999626e+00 3.806576999999999877e+00 8.826800000000000201e-01 6.756769999999999721e-01 -3.022719999999999851e-01 1.737239999999999895e-01 4.322759999999999936e-01 -1.116060999999999970e+00 2.778789999999999871e-01 2.243630000000000069e-01 -2.423929999999999974e-01 3.850553000000000115e+00 3.179200000000000081e-02 -2.536280000000000201e-01 4.450149999999999939e-01 -1.507454999999999989e+00 1.229476999999999931e+00 6.999779999999999891e-01 7.551189999999999847e-01 -6.466840000000000366e-01 -4.395216999999999707e+00 -1.178884000000000043e+00 7.215699999999999892e-02 -3.158509999999999929e-01 2.946590000000000042e-01 -1.925820000000000032e-01 1.701000000000000081e-02 -6.322862999999999900e+00 -2.731278000000000095e+00 -3.634459999999999913e-01 1.699050000000000005e-01 -1.002834000000000003e+00 4.942599999999999771e-01 2.604750000000000121e-01 7.586349999999999483e-01 -8.031399999999999650e-01 -1.965530000000000055e-01 2.492169999999999941e-01 4.234959999999999836e-01
1.321188999999999947e+00 7.438789999999999569e-01 5.301289999999999614e-01 -3.654609999999999803e-01 -6.085429999999999451e-01 -7.287919999999999954e-01 -1.495403000000000038e+00 -6.666180000000000438e-01 -5.782708999999999655e+00 5.861730000000000551e-01 -1.754761999999999933e+00 -1.507489999999999941e-01 3.810499999999999998e-01 -2.293880000000000086e-01 -1.534032999999999980e+00 -1.422088000000000019e+00 -1.428245999999999905e+00 1.490370000000000028e-01 -1.224377000000000049e+00 5.262800000000000117e-02 3.366439999999999988e-01 1.202353000000000005e+00 2.292170000000000041e-01 5.765405999999999587e+00 -1.357413999999999898e+00 -1.418956000000000106e+00 -3.822989999999999999e-01 5.599779999999999758e-01 6.513750000000000373e-01 1.433248999999999995e+00 1.430326999999999904e+00 2.100565000000000015e+00 -1.955590000000000106e-01 2.009571000000000218e+00 1.595045999999999964e+00 -1.925189999999999957e-01 -5.531500000000000306e-01 -3.603379999999999916e-01 1.623498000000000108e+00 -1.007311999999999985e+00 1.366475000000000106e+00 -8.827460000000000306e-01 6.589869999999999894e-01 -3.060359999999999747e-01 1.075289999999999996e-01 -7.244230000000000391e-01 3.370100000000000179e-02 -9.608600000000000474e-02
3.982999999999999874e-01 -5.121259999999999701e-01 4.689499999999999919e-02 1.179899999999999977e-01 2.852879999999999860e-01 -4.242549999999999932e-01 -7.333479999999999999e-01 -6.519030000000000102e-01 -3.900950000000000251e-01 4.410930000000000129e-01 -2.179107999999999823e+00 9.447600000000000442e-01 -1.814975999999999923e+00 1.462300000000000058e-02 3.129890000000000172e-01 3.963030000000000164e-01 8.387879999999999781e-01 -1.461520000000000041e-01 -6.958050000000000068e-01 1.343393999999999977e+00 -8.166800000000000448e-02 -3.197280000000000122e-01 6.810199999999999587e-02 -8.593260000000000343e-01 9.374080000000000190e-01 8.046545000000000059e+00 -6.751850000000000351e-01 5.414269999999999916e-01 7.998399999999999954e-02 9.783039999999999514e-01 6.359129999999999505e-01 -1.209384000000000015e+00 2.052010999999999807e+00 -3.481739999999999835e-01 2.879573999999999856e+00 -5.017650000000000166e-01 3.825799999999999756e-01 2.173769999999999869e-01 -2.126323000000000185e+00 -1.249450000000000005e-01 -3.980210000000000137e-01 1.933209999999999928e-01 -8.448449999999999571e-01 -1.256022999999999890e+00 8.422819999999999752e-01 1.030807000000000029e+00 -7.567108000000000168e+00 -1.657909999999999939e-01
-9.736200000000000410e-02 2.816859999999999919e-01 2.581200000000000161e-02 1.144099999999999978e-01 -1.454699999999999882e-01 -7.841069999999999984e-01 3.722159999999999913e-01 1.272361000000000075e+00 -1.030151999999999957e+00 -6.925949999999999607e-01 8.872510000000000119e-01 -2.300900000000000167e-02 6.744850000000000012e-01 3.797260000000000080e-01 7.422849999999999726e-01 -2.149770000000000014e-01 2.092019999999999991e-01 2.365359999999999963e-01 8.812899999999999900e-02 -3.134779999999999789e-01 -9.681299999999999628e-02 3.787559999999999816e-01 -1.985449999999999993e-01 -2.939669999999999783e-01 1.754350000000000076e-01 -1.147696999999999967e+00 7.749260000000000037e-01 -3.615970000000000018e-01 -3.295009999999999883e-01 -7.734569999999999501e-01 2.312631000000000103e+00 2.365120000000000000e-01 -1.170115999999999934e+00 -1.639269999999999894e-01 -2.293699999999999906e-02 3.642880000000000007e-01 -3.311069999999999847e-01 2.272753999999999941e+00 1.849801999999999946e+00 -6.568939999999999779e-01 -3.903679999999999928e-01 7.417089999999999517e-01 -1.775301999999999936e+00 -6.906689999999999774e-01 1.185562000000000005e+00 1.777009999999999978e-01 -2.300825999999999816e+00 -1.749298999999999937e+00
1.464719999999999911e-01 -4.084260000000000113e-01 1.133718999999999921e+00 8.666540000000000354e-01 5.941300000000000053e-02 4.757140000000000257e-01 -1.012861000000000011e+00 -1.123019999999999990e-01 -5.415729999999999711e-01 1.764100000000000043e-02 -8.919399999999999551e-02 8.174599999999999922e-02 -1.705562999999999940e+00 1.756923000000000012e+00 7.151309999999999611e-01 -4.199900000000000161e-02 -3.362180000000000168e-01 2.495090000000000086e-01 2.600480000000000014e-01 3.767679999999999918e-01 8.692300000000000026e-02 8.509999999999999509e-02 -3.112679999999999891e-01 -6.666950000000000376e-01 -2.021679999999999866e-01 -3.811699999999999811e-02 -1.779539999999999900e+00 -4.322900000000000076e-01 -2.070828999999999809e+00 -1.177497000000000016e+00 -1.455961999999999978e+00 3.804317000000000171e+00 2.867256999999999945e+00 2.393679999999999974e-01 -5.115999999999999888e-03 3.158340000000000036e-01 -3.140199999999999936e-02 -6.729899999999999771e-02 1.176245999999999903e+00 2.793880000000000141e+00 -1.049438000000000093e+00 -2.322814999999999852e+00 4.969410000000000216e-01 -1.690696999999999894e+00 -1.631000000000000071e-03 -2.385900000000000173e-02 1.814820000000000044e-01 -6.123279999999999834e-01
-8.865199999999999469e-02 3.285219999999999807e-01 1.795130000000000059e-01 -1.518597999999999892e+00 4.501592999999999734e+00 3.868189999999999795e+00 -8.284120000000000372e-01 8.048929999999999696e-01 9.285639999999999450e-01 2.157350000000000101e-01 -2.545819999999999750e-01 -2.287770000000000081e-01 -2.954970000000000097e-01 -1.899230000000000085e-01 1.169626000000000055e+00 -3.190399999999999903e-01 -3.360020000000000229e-01 -5.228199999999999514e-01 1.024399999999999963e-02 2.087312999999999974e+00 -2.813336000000000059e+00 4.615560000000000218e-01 -1.846233999999999931e+00 -5.170200000000000351e-01 7.204329999999999901e-01 -2.776299999999999948e-02 -1.149875999999999898e+00 3.443689999999999807e-01 -3.563669999999999893e-01 4.991700000000000303e-02 3.616030000000000078e-01 1.383359999999999868e-01 -3.591449999999999920e-01 -7.128989999999999494e-01 7.912099999999999689e-01 -2.401419999999999944e-01 -5.125856999999999886e+00 -6.832618000000000080e+00 -6.173452000000000162e+00 1.911490000000000133e-01 -5.018930000000000335e-01 8.591919999999999558e-01 2.250089999999999868e-01 1.059299999999999908e+00 8.620949999999999447e-01 6.358855000000000146e+00 6.342149999999999732e-01 4.087470999999999854e+00
-1.197249999999999981e-01 2.629300000000000040e-02 -4.058350000000000013e-01 -9.242100000000000315e-02 -3.233210000000000250e-01 1.022330000000000044e-01 1.748140999999999945e+00 -2.292899999999999938e-01 -1.009501999999999899e+00 -9.772910000000000208e-01 2.721096000000000181e+00 -1.016669999999999935e-01 9.821699999999999875e-01 1.763066999999999940e+00 1.702436999999999978e+00 -2.767649999999999832e-01 1.706409999999999871e-01 1.869949999999999946e-01 6.265700000000000436e-02 -6.183640000000000247e-01 8.563600000000000378e-02 -3.541929999999999801e-01 2.917290000000000161e-01 6.865679999999999561e-01 -7.276799999999999935e-01 7.452619999999999800e-01 -3.538339999999999819e-01 1.543069999999999997e-01 1.864867000000000052e+00 -1.374681000000000042e+00 5.291390000000000260e-01 -1.303822999999999954e+00 -1.036936999999999998e+00 -3.805620000000000114e-01 -2.607820000000000138e-01 6.361809999999999965e-01 -2.762189999999999923e-01 2.318468999999999891e+00 2.001469999999999860e+00 -3.444349999999999912e-01 -9.980269999999999975e-01 8.864269999999999650e-01 -3.416029999999999900e-01 -3.824707000000000079e+00 8.008099999999999941e-02 4.144809999999999883e-01 -2.343109000000000108e+00 -2.085570999999999842e+00
1.344562000000000035e+00 1.021074000000000037e+00 -3.572819999999999885e-01 -2.049209999999999976e+00 3.925863999999999798e+00 -7.470417000000000307e+00 -9.492730000000000334e-01 -5.027399999999999924e-02 2.775968999999999909e+00 -2.854500000000000093e-02 -2.244929999999999981e-01 3.624939999999999829e-01 -3.957800000000000207e-01 -2.830759999999999943e-01 -2.147860999999999798e+00 -5.400270000000000348e-01 -4.763029999999999764e-01 -2.226899999999999991e-01 1.952020000000000088e+00 -3.380377000000000187e+00 7.526936000000000071e+00 4.587300000000000266e-01 -3.933400000000000091e-02 8.906600000000000628e-02 -1.449680000000000135e-01 4.791100000000000220e-02 6.878959999999999519e-01 1.404150000000000120e-01 -1.295800000000000077e-02 -6.701829999999999732e-01 -8.982959999999999834e-01 -2.021330000000000071e-01 -4.422340000000000160e-01 1.150140000000000051e-01 -5.121670000000000389e-01 -1.992099999999999982e-01 6.128010000000000401e-01 -3.060519999999999907e-01 1.277820000000000067e-01 1.026817000000000091e+00 -3.605160000000000031e-01 5.304029999999999578e-01 -2.108929999999999971e-01 6.851450000000000040e-01 -1.204709999999999948e+00 -4.333670000000000022e-01 1.676870000000000027e-01 6.140419999999999767e-01
-6.956740000000000146e-01 2.871969999999999801e-01 -1.049979999999999941e-01 1.082529999999999992e+00 9.157469999999999777e-01 2.442100000000000104e-01 -3.373775000000000190e+00 -2.691549999999999776e-01 3.474775000000000169e+00 6.078700000000000075e-02 -7.737990000000000146e-01 4.309430000000000205e-01 -4.338259999999999894e-01 -1.279870999999999981e+00 -6.422200000000000131e-01 3.128188999999999886e+00 -6.252690000000000303e+00 -4.716025000000000134e+00 1.319529999999999870e-01 3.849719999999999809e-01 -5.057979999999999698e-01 1.613130000000000119e-01 8.056499999999999773e-02 -1.168415999999999899e+00 3.236249999999999960e-01 1.526068999999999898e+00 -9.350899999999999490e-02 -6.882789999999999742e-01 -2.725199999999999845e-02 1.037881999999999971e+00 5.108880000000000088e-01 3.856699999999999712e-02 3.830999999999999961e-01 -1.512906000000000084e+00 6.689905000000000435e+00 7.761600000000000443e-02 3.022489999999999899e-01 -4.596939999999999915e-01 -1.959549999999999903e-01 8.233040000000000358e-01 1.742600000000000052e-02 9.842769999999999575e-01 -1.808530000000000137e-01 -1.587659999999999905e-01 1.266760000000000108e-01 3.604740000000000166e-01 -7.192220000000000280e-01 6.674419999999999797e-01
-1.957490000000000063e-01 2.305750000000000022e-01 -6.451590000000000380e-01 -2.548980000000000135e-01 -9.276820000000000066e-01 1.239964000000000066e+00 1.840509999999999924e-01 2.418629999999999947e-01 -1.860370000000000079e-01 1.303914999999999935e+00 -6.789150000000000462e-01 -5.570699999999999541e-01 -4.628570000000000184e-01 -2.693699000000000066e+00 2.005079999999999973e+00 6.198540000000000161e-01 3.280721000000000220e+00 2.487772999999999790e+00 6.189000000000000057e-03 -4.095869999999999789e-01 2.860770000000000257e-01 1.544220000000000037e-01 -2.961199999999999943e-01 2.611049999999999760e-01 -2.336489999999999956e-01 -3.564649999999999763e-01 -6.487199999999999911e-02 3.609999999999999928e-04 -2.682880000000000265e-01 2.681959999999999900e-01 -5.711939999999999795e-01 2.976159999999999917e-01 -2.292790000000000106e-01 3.800200000000000106e-02 3.035010000000000208e-01 -5.188209999999999766e-01 -4.702569999999999806e-01 -3.116887000000000185e+00 -2.372555999999999887e+00 3.373099999999999710e-02 4.137500000000000067e-01 -6.988000000000000288e-03 -1.222200000000000022e-02 3.949600000000000222e+00 -1.847839000000000009e+00 -1.396979999999999889e-01 3.001799999999999954e-02 -1.195739999999999997e-01
-2.947239999999999860e-01 -7.018699999999999939e-02 5.371200000000000419e-01 -2.579339999999999966e-01 -3.527000000000000135e-01 2.669770000000000199e-01 5.976010000000000488e-01 6.140480000000000382e-01 -1.319971999999999923e+00 -4.251480000000000259e-01 -2.616100000000000092e-01 -6.867600000000000371e-01 -2.383856000000000197e+00 2.929269999999999818e+00 -2.509190000000000031e-01 2.149089999999999889e-01 -3.625297000000000214e+00 7.105700000000000349e-01 3.555340000000000167e-01 1.167400000000000035e-02 2.413389999999999980e-01 9.801500000000000490e-02 5.054419999999999469e-01 -9.394559999999999578e-01 -1.622129999999999961e-01 2.832580000000000098e-01 -5.384980000000000322e-01 -3.863150000000000195e-01 -1.278507000000000060e+00 -5.238730000000000331e-01 -2.171140000000000014e-01 2.554567000000000032e+00 1.948201999999999989e+00 -6.865609999999999769e-01 -5.131520000000000525e-01 1.258669000000000038e+00 -3.524000000000000049e-02 -5.330700000000000022e-02 1.146781999999999968e+00 1.476050000000000084e+00 2.610704000000000136e+00 -2.365142000000000078e+00 1.878006999999999982e+00 -3.121741999999999795e+00 -1.009250000000000008e-01 2.289889999999999981e-01 -2.324620000000000020e-01 6.158860000000000445e-01
-9.378849999999999687e-01 -1.457410000000000094e+00 6.774759999999999671e-01 -2.371789999999999843e+00 -9.690600000000000602e-02 2.087606000000000073e+00 -5.496649999999999592e-01 1.908590000000000009e-01 1.070940000000000003e+00 -2.063359999999999916e-01 1.478990000000000027e-01 -1.185189999999999966e+00 1.349430000000000074e-01 4.479650000000000021e-01 3.831840000000000246e-01 2.694869000000000181e+00 -4.770293999999999812e+00 -4.817799999999999860e-02 8.808150000000000146e-01 -2.803018999999999927e+00 -1.748112000000000110e+00 -9.348990000000000355e-01 2.036694999999999922e+00 1.720002999999999949e+00 -6.362609999999999655e-01 2.625399999999999956e-01 7.958100000000000174e-01 3.182400000000000229e-01 5.312919999999999865e-01 -6.332400000000000251e-01 1.606199999999999989e-02 -4.969049999999999856e-01 1.820759999999999879e-01 1.791409999999999947e-01 5.128961000000000325e+00 -1.431092999999999948e+00 1.160695000000000032e+00 4.343589999999999951e-01 -1.204609999999999986e-01 3.826849999999999974e-01 -3.300049999999999928e-01 -3.728469999999999840e-01 -1.167040000000000022e-01 1.246501999999999999e+00 -4.076159999999999783e-01 -1.391300000000000002e-02 -4.725329999999999808e-01 -9.703580000000000538e-01
1.421260000000000023e-01 1.838309999999999944e-01 9.251669999999999616e-01 -7.095960000000000045e-01 -6.139310000000000045e-01 -1.248839999999999950e-01 1.307938000000000045e+00 -2.152632999999999797e+00 -7.221229999999999594e-01 -3.208960000000000146e-01 -2.009599999999999997e-01 -2.798450000000000104e-01 -5.315590000000000037e-01 1.092872999999999983e+00 -2.152709999999999901e-01 9.652810000000000556e+00 -4.051203000000000110e+00 -5.531470000000000553e-01 1.626838000000000006e+00 7.668869999999999854e-01 -3.402359999999999829e-01 -9.629896999999999707e+00 3.948001999999999789e+00 4.092239999999999767e-01 -1.422784999999999966e+00 -2.703320000000000167e-01 1.936660000000000048e-01 7.995149999999999757e-01 -4.123939999999999828e-01 -6.464710000000000178e-01 -3.598599000000000103e+00 6.070889999999999898e-01 -8.344129999999999603e-01 -5.880779999999999896e-01 5.774730000000000141e-01 6.156530000000000058e-01 3.949132999999999782e+00 7.942719999999999780e-01 8.437160000000000215e-01 -5.721359999999999779e-01 8.850339999999999874e-01 -1.976090000000000069e-01 -4.527289999999999925e-01 -1.360351000000000088e+00 5.937810000000000032e-01 3.479149999999999743e-01 2.063450000000000006e-01 3.327939999999999787e-01
6.253999999999999559e-01 1.160049999999999970e-01 -8.850240000000000329e-01 -6.428089999999999637e-01 -8.338560000000000416e-01 3.840939999999999910e-01 1.998540000000000039e-01 9.734530000000000127e-01 2.681865000000000165e+00 -9.870640000000000525e-01 -2.509700000000000264e-01 -1.597104000000000079e+00 1.421000000000000041e-01 -1.497699999999999865e-01 -2.560149999999999926e-01 4.560469999999999802e-01 -9.298009999999999886e-01 1.125694999999999890e+00 -3.608040000000000136e-01 -5.865860000000000518e-01 -2.278759999999999952e-01 7.834809999999999830e-01 -5.933226999999999585e+00 -6.365790000000000060e-01 -7.965809999999999835e-01 1.642304999999999904e+00 7.298909999999999565e-01 1.953550000000000009e-01 -4.561029999999999807e-01 -7.083100000000000507e-02 -5.768090000000000162e-01 -9.522000000000000464e-01 -3.722119999999999873e-01 -1.482529999999999959e-01 6.004694999999999894e+00 5.731749999999999901e-01 -9.644700000000000495e-01 1.623779999999999946e-01 -3.899299999999999988e-01 1.682188999999999934e+00 5.110350000000000170e-01 -6.907849999999999824e-01 3.784699999999999870e-02 -4.087600000000000122e-01 -2.067660000000000053e-01 3.545200000000000018e-01 1.091401000000000066e+00 -1.615979999999999916e-01
-5.997670000000000501e-01 6.416579999999999506e-01 1.124050000000000049e-01 -4.235510000000000108e-01 -4.649780000000000024e-01 -5.164469999999999894e-01 8.458309999999999995e-01 1.500914000000000081e+00 -5.298840000000000217e-01 -9.734960000000000280e-01 -4.187699999999999756e-01 -1.834044999999999925e+00 -4.753760000000000208e-01 2.746810000000000085e-01 -8.665190000000000392e-01 1.515620000000000023e-01 -1.615621999999999892e+00 4.138649999999999829e-01 7.677720000000000100e-01 -5.253120000000000012e-01 4.880970000000000031e-01 -1.039479999999999987e-01 1.464358000000000049e+00 -1.178411000000000097e+00 -4.442329999999999890e-01 3.061440000000000272e-01 4.277159999999999851e-01 2.432310000000000028e-01 6.472999999999999587e-02 4.291550000000000087e-01 5.182620000000000005e-01 -3.897180000000000089e-01 -2.508520000000000194e-01 -7.468099999999999739e-01 -6.026920000000000055e-01 1.200461000000000000e+00 -7.360000000000000006e-04 1.351100000000000044e-02 1.163218000000000085e+00 1.341809999999999947e-01 1.229270000000000085e+00 -8.325080000000000258e-01 7.485760000000000192e-01 -6.032129999999999992e-01 -2.253900000000000070e-01 3.585019999999999873e-01 -8.749620000000000175e-01 1.999138000000000082e+00
3.592578000000000049e+00 1.826719999999999899e+00 -3.161539999999999906e-01 1.338759999999999950e-01 -1.858268000000000031e+00 4.393909999999999760e-01 -3.205839999999999801e-01 1.142182000000000031e+00 -6.225180000000000158e-01 -7.245219999999999994e-01 -4.231840000000000046e-01 -2.868979999999999864e-01 1.718220999999999998e+00 -5.866382999999999903e+00 3.312615999999999783e+00 6.213100000000000289e-01 -9.433650000000000091e-01 5.044349999999999667e-01 -3.847769999999999802e-01 -2.409570000000000045e-01 -7.662609999999999699e-01 1.147677000000000058e+00 7.695549999999999891e-01 -6.367570000000000174e-01 -1.834890000000000132e-01 1.590400000000000147e-02 3.605650000000000244e-01 -1.132092000000000098e+00 -2.173653999999999975e+00 1.137990999999999975e+00 -7.083939999999999682e-01 4.040929999999999800e-01 7.272110000000000518e-01 1.247921999999999976e+00 -5.157500000000000279e-02 -1.038099999999999960e-02 -3.347671000000000063e+00 -5.755599999999999605e-01 -4.741099999999999759e-01 -1.547814999999999941e+00 5.955873999999999668e+00 -4.419527000000000427e+00 -7.790700000000000403e-01 1.183893000000000084e+00 8.506909999999999750e-01 6.668300000000000338e-01 8.347229999999999928e-01 1.997049999999999936e-01