-4.129247438000000159e+01
-4.093354784000000279e+01
-3.979238903000000249e+01
-3.953003258999999758e+01
-3.885183851000000033e+01
-4.068143846000000252e+01
-4.125970376000000073e+01
-4.047075789000000157e+01
-3.938305833999999805e+01
-4.063900360000000234e+01
-3.896963738000000177e+01
-3.935402485000000183e+01
-4.122019860000000335e+01
-4.041860659999999683e+01
-4.027470206000000275e+01
-4.060623105999999893e+01
-4.034006175999999755e+01
-4.017052351000000243e+01
-3.959841389999999706e+01
-4.088675399000000255e+01
-4.045051967999999931e+01
-3.881162298999999649e+01
-4.053087307999999922e+01
-4.009474560999999682e+01
-4.054407342999999742e+01
-4.018010980999999759e+01
-4.055292416999999716e+01
-3.910182352999999722e+01
-3.992847857000000289e+01
-3.994251855000000262e+01
-4.004434081000000134e+01
-4.012064799000000193e+01
-4.110239435999999813e+01
-4.100572518999999971e+01
-3.940233953999999983e+01
-3.989061359000000095e+01
-3.988261212999999827e+01
-3.929632534999999649e+01
-4.038382765000000063e+01
