5.313340000000000174e+00 3.798729999999999940e+00 7.585000000000000075e-02 1.160560000000000036e+00 1.667000000000000079e-02 2.096070000000000100e+00 3.179860000000000131e+00 2.170100000000000140e+00 5.781049999999999578e+00 8.334250000000000824e+00 4.140509999999999913e+00 3.567989999999999995e+00 7.118240000000000123e+00 2.513520000000000199e+00 9.232799999999999896e-01 7.636540000000000106e+00 4.488260000000000360e+00 3.421399999999999997e-01 5.072860000000000369e+00 1.176090000000000080e+00 8.269819999999999283e+00 4.720710000000000406e+00 3.898420000000000218e+00 7.228119999999999656e+00 2.626059999999999839e+00 -1.079699999999999965e-01 4.243710000000000093e+00 3.775739999999999874e+00 2.004210000000000047e+00 1.182679999999999954e+00 2.405250000000000110e+00 1.067239999999999966e+00 8.658429999999999183e+00 7.906640000000000335e+00 3.646180000000000199e+00 7.540199999999999569e+00 1.173799999999999955e+00 1.908430000000000071e+00 3.715100000000000069e+00 4.525719999999999743e+00 2.624449999999999950e+00 3.555169999999999941e+00 6.341590000000000060e+00 9.007500000000000506e-01 5.892159999999999620e+00 6.534860000000000113e+00 4.347120000000000317e+00 2.267370000000000108e+00
4.962040000000000006e+00 1.887650000000000050e+00 1.565069999999999961e+00 3.421640000000000015e+00 1.127199999999999980e+00 8.655640000000000001e+00 4.585989999999999789e+00 6.080799999999999539e-01 6.502220000000000333e+00 6.389160000000000394e+00 4.623610000000000220e+00 2.792990000000000084e+00 5.809169999999999945e+00 2.995400000000000063e+00 6.617429999999999701e+00 7.118870000000000253e+00 3.320710000000000051e+00 1.930000000000000118e-02 4.394230000000000302e+00 3.416279999999999983e+00 8.771800000000000708e+00 6.036450000000000315e+00 2.668359999999999843e+00 4.132390000000000008e+00 2.303690000000000015e+00 2.027740000000000098e+00 2.013799999999999812e+00 2.006339999999999790e+00 5.468600000000000128e-01 4.344890000000000363e+00 7.797320000000000029e+00 4.471949999999999648e+00 4.568920000000000314e+00 2.740650000000000031e+00 2.500849999999999795e+00 6.763580000000000148e+00 3.773690000000000211e+00 2.712180000000000035e+00 4.689420000000000144e+00 4.030899999999999928e+00 4.563939999999999664e+00 2.176039999999999974e+00 5.813749999999999751e+00 1.110409999999999897e+00 8.815000000000000613e-02 1.708040000000000003e+00 3.853500000000000258e-01 6.719089999999999563e+00
2.300279999999999880e+00 6.664499999999999869e-01 4.296739999999999782e+00 6.756280000000000285e+00 1.847080000000000055e+00 2.421339999999999826e+00 5.769739999999999647e+00 6.001300000000000523e-01 4.298770000000000202e+00 2.816780000000000062e+00 5.040000000000000036e-02 8.814669999999999561e+00 6.282300000000000217e+00 3.292209999999999859e+00 4.450330000000000119e+00 7.432229999999999670e+00 3.654920000000000169e+00 6.115549999999999820e+00 3.517949999999999910e+00 2.887150000000000105e+00 4.871190000000000353e+00 4.793330000000000091e+00 4.169480000000000075e+00 6.604119999999999990e+00 3.779689999999999994e+00 1.123809999999999976e+00 2.601129999999999942e+00 3.672909999999999897e+00 4.586430000000000007e+00 2.757299999999999751e-01 7.030400000000000205e+00 2.867459999999999898e+00 8.975390000000000867e+00 6.134780000000000122e+00 1.552659999999999929e+00 6.932570000000000121e+00 5.220679999999999765e+00 1.813860000000000028e+00 4.987599999999999811e-01 5.505919999999999703e+00 4.050150000000000361e+00 1.859250000000000069e+00 8.120620000000000616e+00 4.100920000000000343e+00 2.098209999999999908e+00 2.825680000000000192e+00 1.441519999999999913e+00 6.675919999999999632e+00
2.903430000000000177e+00 1.251400000000000012e-01 3.989869999999999806e+00 1.523320000000000007e+00 6.163399999999999990e-01 1.856999999999999984e+00 4.304700000000000193e-01 3.750999999999999890e-01 3.941419999999999924e+00 5.284959999999999880e+00 2.639460000000000139e+00 2.057299999999999962e-01 7.149320000000000341e+00 2.469599999999999795e+00 4.153129999999999988e+00 4.677940000000000431e+00 1.090349999999999930e+00 6.309420000000000250e+00 4.726750000000000007e+00 3.140569999999999862e+00 5.029379999999999740e+00 2.182249999999999801e+00 1.022869999999999946e+00 6.684179999999999566e+00 4.490450000000000053e+00 1.496939999999999937e+00 2.139209999999999834e+00 7.135600000000000165e+00 4.460709999999999731e+00 4.436899999999999733e-01 4.855900000000000216e-01 7.470400000000000373e-01 8.411939999999999529e+00 5.945210000000000328e+00 3.194300000000000139e+00 6.961149999999999949e+00 2.611159999999999926e+00 2.158370000000000122e+00 2.678800000000000070e-01 5.798939999999999984e+00 3.209830000000000183e+00 2.567619999999999791e+00 2.987220000000000208e+00 3.653189999999999937e+00 2.163860000000000117e+00 3.487870000000000026e+00 3.523109999999999964e+00 7.423390000000000377e+00
2.356149999999999967e+00 3.946029999999999927e+00 8.745660000000000878e+00 3.626630000000000020e+00 3.946839999999999904e+00 2.128680000000000128e+00 6.302520000000000344e+00 4.790020000000000167e+00 4.256109999999999616e+00 4.954159999999999897e+00 3.877629999999999910e+00 8.848050000000000637e+00 4.506960000000000299e+00 1.464860000000000051e+00 2.285449999999999982e+00 4.649980000000000224e+00 2.943109999999999893e+00 4.238819999999999588e+00 5.116670000000000051e+00 9.839799999999999658e-01 7.402960000000000207e+00 2.725470000000000059e+00 1.253279999999999950e+00 6.951660000000000394e+00 4.081590000000000273e+00 3.425580000000000069e+00 6.650660000000000238e+00 7.134669999999999845e+00 3.575289999999999857e+00 6.631840000000000401e+00 6.861869999999999692e+00 3.599549999999999805e+00 2.327339999999999964e+00 6.059249999999999581e+00 1.735260000000000025e+00 5.146899999999999809e-01 2.149779999999999802e+00 8.381699999999999706e-01 2.309829999999999828e+00 1.149129999999999985e+00 -3.740999999999999881e-02 4.651919999999999611e+00 2.095990000000000020e+00 2.486860000000000070e+00 4.333350000000000257e+00 3.025500000000000078e+00 1.386330000000000062e+00 2.726799999999999780e-01
5.856359999999999566e+00 4.460749999999999993e+00 3.976859999999999840e+00 4.402389999999999581e+00 4.111250000000000071e+00 1.902349999999999985e+00 5.771580000000000155e+00 1.715750000000000108e+00 2.231339999999999879e+00 4.643720000000000070e+00 1.990380000000000038e+00 4.728559999999999874e+00 2.276120000000000143e+00 5.325999999999999623e-01 8.587130000000000152e+00 3.580439999999999845e+00 1.257670000000000066e+00 2.004970000000000141e+00 5.381739999999999746e+00 1.684749999999999970e+00 6.484399999999999942e+00 3.724680000000000213e+00 4.374749999999999694e+00 6.964120000000000310e+00 6.549339999999999939e+00 2.814160000000000217e+00 1.085000000000000027e-02 2.969430000000000014e+00 2.008249999999999869e+00 6.475600000000000023e+00 4.167679999999999829e+00 1.916690000000000005e+00 8.663100000000000023e+00 5.175670000000000215e+00 9.408999999999999309e-02 2.031399999999999872e-01 2.053119999999999834e+00 3.522990000000000066e+00 2.304889999999999883e+00 6.491119999999999557e+00 4.159690000000000332e+00 6.644989999999999952e+00 5.100000000000000089e-01 2.089000000000000024e-01 3.974000000000000199e+00 1.753319999999999990e+00 2.615590000000000082e+00 4.397439999999999571e+00
3.472269999999999968e+00 1.602400000000000047e+00 2.588449999999999918e+00 4.650470000000000326e+00 2.244099999999999984e+00 8.612320000000000420e+00 6.048700000000000188e+00 2.301509999999999945e+00 5.974219999999999864e+00 5.639689999999999870e+00 3.370369999999999866e+00 2.168109999999999982e+00 4.136599999999999611e+00 7.951099999999999834e-01 6.879850000000000243e+00 3.322859999999999925e+00 4.423600000000000421e+00 8.827809999999999491e+00 3.093620000000000037e+00 3.442399999999999904e-01 7.238799999999999679e-01 4.678300000000000125e+00 1.593999999999999931e-02 4.720010000000000261e+00 5.870569999999999844e+00 1.259570000000000078e+00 1.932199999999999918e+00 4.507629999999999804e+00 2.777480000000000171e+00 4.342939999999999579e+00 1.564170000000000060e+00 1.897240000000000038e+00 4.367149999999999643e+00 1.820030000000000037e+00 7.464899999999999869e-01 7.441650000000000098e+00 5.237129999999999619e+00 4.459859999999999935e+00 5.693719999999999892e+00 2.964220000000000077e+00 3.643479999999999830e+00 2.242620000000000058e+00 1.685650000000000093e+00 2.449380000000000113e+00 9.033709999999999241e+00 2.796120000000000161e+00 3.169090000000000185e+00 6.468609999999999971e+00
2.646819999999999951e+00 1.472679999999999989e+00 4.850679999999999659e+00 4.707639999999999603e+00 4.619690000000000296e+00 2.777099999999999902e+00 5.410339999999999705e+00 7.139199999999999990e-01 4.372469999999999857e+00 1.088310000000000111e+00 1.065399999999999903e+00 8.801560000000000272e+00 6.876310000000000144e+00 3.264279999999999848e+00 4.069759999999999600e+00 7.884420000000000428e+00 4.207169999999999632e+00 6.599249999999999616e+00 4.843829999999999636e+00 3.035839999999999872e+00 4.371640000000000192e+00 4.521379999999999733e+00 4.119080000000000297e+00 6.473639999999999617e+00 7.967859999999999943e+00 4.268720000000000070e+00 2.322459999999999969e+00 4.917819999999999858e+00 1.388919999999999932e+00 4.903299999999999881e-01 5.789010000000000211e+00 3.341279999999999806e+00 8.681160000000000210e+00 6.251610000000000333e+00 1.704210000000000003e+00 6.423300000000000232e+00 3.595889999999999809e+00 3.746710000000000207e+00 5.232299999999999729e-01 5.980010000000000048e+00 2.609879999999999978e+00 1.980760000000000076e+00 3.204039999999999999e+00 2.231300000000000061e+00 2.322919999999999874e+00 3.960069999999999979e+00 1.905270000000000019e+00 7.105159999999999698e+00
2.404580000000000162e+00 7.814699999999999980e-01 4.420790000000000219e+00 6.897199999999999775e+00 1.976730000000000098e+00 2.692820000000000213e+00 5.600959999999999717e+00 6.772799999999999931e-01 4.773349999999999760e+00 2.861520000000000064e+00 1.904700000000000004e-01 8.740109999999999602e+00 6.030100000000000016e+00 3.172340000000000160e+00 4.295930000000000248e+00 7.671879999999999811e+00 3.697309999999999874e+00 6.399149999999999672e+00 3.685369999999999813e+00 2.888770000000000060e+00 4.674389999999999823e+00 4.995790000000000397e+00 4.340360000000000440e+00 6.604499999999999815e+00 3.819020000000000081e+00 1.128360000000000030e+00 2.692950000000000177e+00 7.585800000000000320e-01 4.687000000000000194e-02 3.343900000000000206e-01 7.116900000000000226e+00 2.581100000000000172e+00 8.903029999999999333e+00 6.291590000000000238e+00 1.184790000000000010e+00 6.942969999999999864e+00 4.890329999999999622e+00 1.925599999999999978e+00 5.392799999999999816e-01 5.359099999999999753e+00 4.072280000000000122e+00 1.811290000000000067e+00 7.890570000000000306e+00 4.019919999999999938e+00 2.007029999999999870e+00 3.186879999999999935e+00 1.466320000000000068e+00 6.396810000000000329e+00
2.376059999999999839e+00 7.323600000000000110e-01 4.352870000000000239e+00 6.829460000000000086e+00 1.938350000000000017e+00 2.593039999999999790e+00 5.718370000000000175e+00 6.423299999999999566e-01 4.536959999999999660e+00 2.817470000000000141e+00 9.414000000000000146e-02 8.801149999999999807e+00 6.178689999999999571e+00 3.237800000000000011e+00 4.382299999999999862e+00 7.552710000000000257e+00 3.659559999999999924e+00 6.219299999999999606e+00 3.582219999999999960e+00 2.875929999999999875e+00 4.805869999999999642e+00 4.925130000000000230e+00 4.358900000000000219e+00 6.623840000000000394e+00 3.789149999999999796e+00 1.069269999999999943e+00 2.659050000000000136e+00 3.723250000000000171e+00 4.713689999999999714e+00 3.382399999999999851e-01 7.070870000000000211e+00 2.738700000000000134e+00 8.949540000000000717e+00 6.242130000000000400e+00 1.348640000000000061e+00 6.931700000000000195e+00 5.074419999999999931e+00 1.859569999999999945e+00 5.189599999999999769e-01 5.442969999999999864e+00 4.095740000000000158e+00 1.798240000000000061e+00 7.996839999999999726e+00 4.091980000000000395e+00 2.047880000000000145e+00 2.953440000000000065e+00 1.395650000000000057e+00 6.505399999999999849e+00
2.449829999999999952e+00 2.732299999999999729e-01 4.397509999999999586e+00 3.900430000000000064e+00 4.043689999999999785e+00 2.334309999999999885e+00 4.678880000000000372e+00 5.316300000000000470e-01 4.739399999999999835e+00 3.942520000000000024e+00 6.303999999999999881e-02 3.816100000000000048e-01 6.086030000000000051e+00 2.334950000000000081e+00 4.139529999999999710e+00 3.260629999999999917e+00 1.299520000000000008e+00 6.268970000000000375e+00 3.654059999999999864e+00 2.907300000000000217e+00 4.302089999999999748e+00 9.853600000000000136e-01 1.535160000000000080e+00 6.178410000000000402e+00 7.264789999999999637e+00 4.211210000000000342e+00 2.392549999999999955e+00 1.070489999999999942e+00 2.091899999999999871e-01 2.114399999999999891e-01 1.594689999999999941e+00 2.175479999999999858e+00 8.409750000000000725e+00 5.025330000000000297e+00 3.659330000000000194e+00 6.706500000000000128e+00 4.295589999999999797e+00 2.327539999999999942e+00 8.356130000000000280e+00 5.518640000000000434e+00 1.875119999999999898e+00 1.617529999999999912e+00 3.143969999999999931e+00 1.380020000000000024e+00 1.740899999999999892e+00 2.301940000000000097e+00 3.650329999999999853e+00 6.513209999999999944e+00
2.139479999999999826e+00 2.168880000000000141e+00 1.725230000000000041e+00 3.874239999999999906e+00 3.167009999999999881e+00 4.758399999999999852e-01 1.922439999999999927e+00 1.575579999999999981e+00 6.858789999999999942e+00 3.906579999999999941e+00 2.599699999999999900e+00 2.999569999999999848e+00 7.301510000000000389e+00 4.519079999999999764e+00 6.614110000000000156e+00 5.186149999999999594e+00 4.872000000000000219e-01 8.653309999999999391e+00 2.536480000000000068e+00 4.527399999999999758e-01 8.791399999999999437e+00 3.462829999999999853e+00 4.735159999999999592e+00 4.836260000000000225e+00 5.399799999999999933e+00 1.404190000000000049e+00 2.437030000000000030e+00 5.244460000000000122e+00 2.139889999999999848e+00 4.687450000000000117e+00 2.040420000000000122e+00 2.845779999999999976e+00 4.051330000000000098e+00 5.239869999999999806e+00 3.954369999999999941e+00 6.341210000000000235e+00 3.596900000000000208e+00 6.155000000000000054e-02 4.390060000000000073e+00 5.824130000000000251e+00 4.246699999999999697e+00 1.628030000000000088e+00 6.674489999999999590e+00 2.934109999999999996e+00 8.609959999999999170e+00 4.124719999999999942e+00 2.241480000000000139e+00 7.276489999999999903e+00
6.020500000000000185e+00 4.053370000000000140e+00 4.019479999999999720e+00 1.140069999999999917e+00 4.592899999999999761e-01 1.827339999999999964e+00 6.028550000000000075e+00 3.405870000000000175e+00 1.736869999999999914e+00 4.024790000000000312e+00 2.270849999999999813e+00 4.702749999999999986e+00 4.526320000000000121e+00 4.352859999999999729e+00 8.696939999999999671e+00 2.493430000000000035e+00 2.680829999999999824e+00 2.347939999999999916e+00 9.407699999999999951e-01 1.058599999999999985e+00 6.764439999999999564e+00 5.440889999999999560e+00 3.314049999999999940e+00 6.747589999999999755e+00 1.439699999999999980e+00 2.105919999999999792e+00 8.842750000000000554e+00 4.094969999999999999e+00 1.141629999999999923e+00 7.414170000000000371e+00 3.654150000000000009e+00 2.703739999999999810e+00 4.172600000000000198e-01 4.922419999999999796e+00 2.434199999999999975e-01 2.270999999999999963e-01 4.230050000000000310e+00 1.051420000000000021e+00 2.358909999999999840e+00 3.183860000000000134e+00 3.231430000000000025e+00 6.789970000000000283e+00 3.066739999999999799e+00 4.493190000000000239e+00 4.232899999999999885e+00 1.281490000000000018e+00 2.164089999999999847e+00 4.770789999999999864e+00
5.088000000000000078e+00 3.546089999999999964e+00 9.346880000000000521e+00 1.199480000000000102e+00 4.531000000000000305e-02 2.037539999999999907e+00 3.253210000000000157e+00 2.042330000000000201e+00 5.797189999999999621e+00 8.186210000000000875e+00 4.163039999999999630e+00 3.707059999999999800e+00 7.198809999999999931e+00 2.354070000000000107e+00 9.649400000000000199e-01 7.910029999999999895e+00 4.524300000000000210e+00 3.599700000000000122e-01 5.216899999999999871e+00 1.299679999999999946e+00 8.247680000000000788e+00 4.604440000000000310e+00 3.831350000000000033e+00 7.202989999999999782e+00 2.601750000000000007e+00 -1.164000000000000035e-01 4.469170000000000087e+00 3.926849999999999952e+00 2.134720000000000173e+00 1.076580000000000092e+00 2.189560000000000173e+00 1.148330000000000073e+00 8.561920000000000641e+00 7.855559999999999654e+00 3.527309999999999945e+00 7.588129999999999598e+00 1.273609999999999909e+00 1.925159999999999982e+00 3.745940000000000047e+00 4.402630000000000265e+00 2.708390000000000075e+00 3.687450000000000117e+00 6.314129999999999576e+00 8.166499999999999870e-01 5.793720000000000425e+00 6.604510000000000325e+00 4.445500000000000007e+00 2.238630000000000120e+00
5.043639999999999901e+00 3.574209999999999887e+00 9.310810000000000031e+00 1.221370000000000067e+00 5.299000000000000238e-02 1.976210000000000022e+00 3.294909999999999783e+00 1.907699999999999951e+00 5.798429999999999751e+00 8.079380000000000450e+00 4.175250000000000128e+00 3.903700000000000170e+00 1.382759999999999989e+00 2.176210000000000200e+00 1.066910000000000025e+00 8.183600000000000207e+00 4.593589999999999840e+00 3.964699999999999891e-01 5.341660000000000075e+00 1.423769999999999980e+00 8.172119999999999607e+00 4.452440000000000175e+00 3.757169999999999899e+00 7.063649999999999984e+00 2.560109999999999886e+00 -1.184199999999999975e-01 4.683629999999999960e+00 4.051750000000000185e+00 2.232759999999999856e+00 9.883699999999999708e-01 2.005180000000000184e+00 1.183400000000000007e+00 8.353300000000000836e+00 7.776279999999999859e+00 3.383879999999999999e+00 7.542040000000000077e+00 1.364209999999999923e+00 1.948679999999999968e+00 3.748489999999999878e+00 4.277529999999999610e+00 2.766680000000000028e+00 3.784260000000000179e+00 4.521999999999999909e-01 7.217900000000000427e-01 5.692779999999999951e+00 6.553149999999999586e+00 4.531609999999999694e+00 2.179899999999999949e+00
2.599089999999999900e+00 -2.149699999999999944e-01 8.817759999999999820e+00 1.135010000000000074e+00 8.153200000000000447e-01 2.339080000000000048e+00 3.879840000000000177e+00 2.687399999999999789e-01 6.576839999999999797e+00 1.052600000000000063e-01 5.038000000000000117e-02 4.255419999999999980e+00 6.509640000000000093e+00 1.820170000000000066e+00 8.669959999999999667e+00 7.856279999999999930e+00 4.375409999999999577e+00 2.166999999999999829e-02 4.116719999999999935e+00 2.368269999999999875e+00 7.051000000000000323e-02 2.747339999999999893e+00 2.553819999999999979e+00 6.753379999999999939e+00 5.334859999999999935e+00 4.323400000000000354e+00 4.328979999999999606e+00 4.140699999999999825e+00 1.015470000000000095e+00 2.339510000000000201e+00 1.418700000000000072e+00 5.402500000000000080e-01 6.255510000000000126e+00 5.203159999999999563e+00 2.665760000000000129e+00 6.402899999999999814e+00 3.166760000000000019e+00 2.971470000000000056e+00 2.651650000000000063e+00 3.772390000000000132e+00 2.393569999999999975e+00 4.449200000000000266e+00 1.632069999999999910e+00 2.494159999999999933e+00 4.795320000000000249e+00 6.081610000000000404e+00 3.221499999999999808e+00 1.937680000000000069e+00
6.442429999999999879e+00 2.992090000000000138e+00 3.613999999999999990e-01 1.254380000000000051e+00 1.287999999999999978e-01 2.556740000000000013e+00 4.696550000000000225e+00 2.061269999999999936e+00 7.273530000000000051e+00 2.699749999999999872e+00 3.723570000000000046e+00 3.854830000000000201e+00 2.548999999999999932e+00 1.068299999999999944e-01 7.910689999999999777e+00 3.418639999999999901e+00 3.718529999999999891e+00 8.797290000000000276e+00 4.579880000000000173e+00 5.670100000000000140e-01 6.663000000000000034e-01 6.200299999999999701e-01 2.920400000000000218e-01 6.323210000000000441e+00 5.046579999999999622e+00 4.128580000000000361e+00 4.626629999999999576e+00 2.654710000000000125e+00 2.583299999999999930e+00 1.800329999999999986e+00 1.844740000000000046e+00 2.573379999999999779e+00 7.003149999999999764e+00 7.044019999999999726e+00 4.227789999999999715e+00 6.034040000000000070e+00 6.108799999999999564e+00 4.126990000000000158e+00 2.431099999999999817e+00 3.461510000000000087e+00 1.711130000000000040e+00 4.950639999999999930e+00 6.293219999999999814e+00 1.968669999999999920e+00 4.597830000000000084e+00 4.774399999999999977e+00 1.920979999999999910e+00 2.588680000000000092e+00
5.044260000000000410e+00 3.652070000000000149e+00 9.237349999999999284e+00 1.220129999999999937e+00 9.629999999999999671e-03 1.966809999999999947e+00 3.301680000000000170e+00 1.771039999999999948e+00 5.798320000000000363e+00 7.964699999999999669e+00 4.188799999999999635e+00 4.105559999999999654e+00 1.349969999999999892e+00 2.058920000000000083e+00 1.175450000000000106e+00 8.409900000000000375e+00 4.638889999999999958e+00 4.274600000000000066e-01 5.424739999999999895e+00 1.532289999999999930e+00 8.037419999999999121e+00 4.282799999999999940e+00 3.671269999999999811e+00 6.855150000000000077e+00 2.513030000000000097e+00 -1.387799999999999867e-01 4.843709999999999738e+00 4.108559999999999768e+00 2.255160000000000053e+00 9.348199999999999843e-01 1.856109999999999927e+00 1.152830000000000021e+00 8.069509999999999295e+00 7.650689999999999991e+00 3.258239999999999803e+00 7.426479999999999748e+00 1.443449999999999900e+00 1.959899999999999975e+00 3.720009999999999817e+00 4.156410000000000160e+00 2.801379999999999981e+00 3.831290000000000084e+00 3.971600000000000130e-01 6.371799999999999686e-01 5.596110000000000362e+00 6.447160000000000224e+00 4.590099999999999625e+00 2.104940000000000033e+00
6.314119999999999955e+00 4.022730000000000139e+00 5.014680000000000248e+00 4.704679999999999751e+00 4.615820000000000256e+00 2.307630000000000070e+00 2.855820000000000025e+00 4.109650000000000247e+00 3.884869999999999823e+00 6.397560000000000358e+00 3.232920000000000016e+00 9.091329999999999245e+00 1.856270000000000087e+00 1.219479999999999897e+00 5.032949999999999591e+00 7.527269999999999683e+00 3.282840000000000202e+00 6.656939999999999635e+00 4.310430000000000206e+00 2.011350000000000193e+00 4.280850000000000044e+00 5.239969999999999573e+00 3.102730000000000210e+00 6.787720000000000198e+00 4.062570000000000014e+00 1.084710000000000063e+00 2.157500000000000195e+00 3.954590000000000050e+00 3.205229999999999801e+00 8.653790000000000759e+00 2.201239999999999863e+00 8.801099999999999479e-01 5.072900000000000187e-01 2.132359999999999811e+00 7.509000000000000119e-01 7.396519999999999762e+00 5.633309999999999818e+00 1.096629999999999994e+00 3.243500000000000272e-01 6.277190000000000047e+00 2.733750000000000124e+00 3.303380000000000205e+00 2.752289999999999903e+00 3.586889999999999912e+00 1.515719999999999956e+00 5.521749999999999936e+00 4.296699999999999964e-01 6.099789999999999601e+00
6.111989999999999590e+00 4.096510000000000318e+00 4.006910000000000416e+00 1.133520000000000083e+00 5.139799999999999924e-01 1.879099999999999993e+00 6.013849999999999696e+00 3.524999999999999911e+00 1.574670000000000014e+00 4.053399999999999892e+00 2.250869999999999926e+00 4.798969999999999736e+00 4.637450000000000294e+00 4.300989999999999647e+00 8.759819999999999496e+00 2.501999999999999780e+00 2.757019999999999804e+00 2.296110000000000095e+00 1.042839999999999989e+00 1.039919999999999956e+00 6.890930000000000000e+00 5.559009999999999785e+00 3.265379999999999949e+00 6.680749999999999744e+00 1.273190000000000044e+00 1.936469999999999914e+00 8.856109999999999260e+00 4.065629999999999633e+00 1.095180000000000042e+00 7.410280000000000200e+00 3.704120000000000079e+00 2.659279999999999866e+00 3.983900000000000219e-01 5.000230000000000175e+00 2.724400000000000155e-01 1.688500000000000001e-01 4.008860000000000312e+00 9.335200000000000164e-01 2.429580000000000073e+00 3.139079999999999870e+00 3.330299999999999816e+00 6.736139999999999795e+00 2.934959999999999791e+00 4.516709999999999781e+00 4.259439999999999671e+00 1.252369999999999983e+00 2.198510000000000186e+00 4.679630000000000400e+00
3.914270000000000138e+00 1.045269999999999921e+00 2.208219999999999850e+00 4.701010000000000133e+00 2.001819999999999933e+00 1.406600000000000072e-01 5.069860000000000255e+00 2.545030000000000125e+00 6.409959999999999880e+00 5.422679999999999723e+00 3.020230000000000192e+00 2.203399999999999803e+00 4.255919999999999703e+00 9.167000000000000148e-02 6.794850000000000279e+00 3.108359999999999790e+00 4.179579999999999629e+00 8.488690000000000069e+00 5.623520000000000074e+00 4.417980000000000018e+00 3.926999999999999935e-02 6.777660000000000018e+00 3.348240000000000105e+00 4.440809999999999924e+00 1.464269999999999960e+00 9.647400000000000420e-01 2.017799999999999816e+00 3.777680000000000149e+00 3.844640000000000057e+00 4.416629999999999612e+00 5.355570000000000164e+00 1.502320000000000100e+00 4.057909999999999684e+00 1.435219999999999940e+00 8.619599999999999485e-01 6.385970000000000368e+00 2.710469999999999935e+00 1.613369999999999971e+00 3.857509999999999994e+00 2.641319999999999890e+00 3.396959999999999980e+00 2.447070000000000078e+00 1.613129999999999953e+00 2.095079999999999831e+00 8.330700000000000216e+00 2.784250000000000114e+00 3.135190000000000143e+00 6.550539999999999807e+00
5.098679999999999879e+00 4.032169999999999810e+00 7.972529999999999895e+00 9.405200000000000227e-01 2.936900000000000066e-01 2.009910000000000085e+00 4.262430000000000163e+00 -6.155999999999999667e-02 6.100050000000000416e+00 5.276810000000000223e+00 9.563300000000000134e-01 4.349079999999999835e+00 6.391309999999999825e+00 2.311040000000000205e+00 2.169599999999999862e-01 2.719850000000000101e+00 3.923789999999999889e+00 8.357369999999999521e+00 3.879610000000000003e+00 1.633040000000000047e+00 8.466960000000000264e+00 2.707520000000000149e+00 2.441359999999999975e+00 6.508580000000000254e+00 2.683980000000000032e+00 7.263100000000000112e-01 4.288219999999999921e+00 3.790519999999999889e+00 2.893299999999999761e-01 1.720359999999999889e+00 1.348589999999999955e+00 3.874299999999999966e-01 6.323360000000000092e+00 5.571100000000000385e+00 2.680989999999999984e+00 6.252220000000000333e+00 2.241179999999999950e+00 2.108309999999999906e+00 2.313579999999999970e+00 3.785419999999999785e+00 3.287999999999999812e+00 4.336890000000000356e+00 6.749600000000000044e+00 2.587520000000000042e+00 4.323120000000000296e+00 5.157580000000000275e+00 2.626230000000000064e+00 2.975620000000000154e+00
2.626619999999999955e+00 1.404479999999999951e+00 4.969540000000000290e+00 1.869410000000000016e+00 1.355999999999999983e-01 2.692530000000000090e+00 5.525879999999999903e+00 6.324899999999999967e-01 4.428729999999999833e+00 1.037660000000000027e+00 1.087129999999999930e+00 9.126160000000000494e+00 7.268799999999999706e+00 3.507709999999999884e+00 4.098950000000000315e+00 8.058170000000000499e+00 4.169150000000000134e+00 6.757740000000000080e+00 4.813329999999999664e+00 3.029650000000000176e+00 4.588709999999999845e+00 4.504660000000000331e+00 4.467120000000000424e+00 6.416960000000000441e+00 8.079560000000000741e+00 4.725719999999999921e+00 2.044130000000000003e+00 4.759640000000000093e+00 1.127490000000000103e+00 1.897500000000000020e-01 5.823809999999999931e+00 3.120750000000000135e+00 8.994989999999999597e+00 6.050869999999999749e+00 1.677659999999999929e+00 6.551129999999999676e+00 3.835379999999999789e+00 3.563140000000000196e+00 5.672099999999999920e-01 6.418520000000000003e+00 2.642710000000000115e+00 2.000179999999999847e+00 3.202980000000000160e+00 2.216489999999999849e+00 2.589459999999999873e+00 3.750509999999999788e+00 1.896490000000000009e+00 7.070470000000000255e+00
2.642910000000000093e+00 1.450919999999999987e+00 4.923840000000000217e+00 1.795479999999999965e+00 -1.924999999999999975e-02 2.748120000000000118e+00 5.472900000000000098e+00 6.813799999999999857e-01 4.413170000000000037e+00 9.996899999999999675e-01 1.106500000000000039e+00 8.996829999999999217e+00 7.053009999999999557e+00 3.390499999999999847e+00 4.075350000000000250e+00 8.023300000000000765e+00 4.202280000000000015e+00 6.690150000000000041e+00 4.887470000000000425e+00 3.056589999999999918e+00 4.491909999999999847e+00 4.488030000000000186e+00 4.294050000000000367e+00 6.440859999999999808e+00 8.058980000000000032e+00 4.491950000000000109e+00 2.177859999999999907e+00 4.909489999999999910e+00 1.265709999999999891e+00 3.404400000000000204e-01 5.824480000000000324e+00 3.192909999999999915e+00 8.904980000000000118e+00 6.139990000000000059e+00 1.672569999999999890e+00 6.495790000000000397e+00 3.711829999999999963e+00 3.664470000000000116e+00 5.750399999999999956e-01 6.220180000000000042e+00 2.648350000000000204e+00 1.967929999999999957e+00 3.203889999999999905e+00 2.244590000000000085e+00 2.451140000000000096e+00 3.878239999999999910e+00 1.899829999999999908e+00 7.095720000000000027e+00