-5.006709364000000306e+01
-5.290249671000000120e+01
-5.209180411999999905e+01
-5.228634423999999825e+01
-5.247049865000000324e+01
-5.331126474999999942e+01
-5.030538007999999905e+01
-5.180152362999999838e+01
-5.199890681000000114e+01
-5.180384255999999965e+01
-5.282327988000000119e+01
-5.101198320000000308e+01
-5.232331779999999810e+01
-5.068362762999999660e+01
-5.101454394000000292e+01
-5.421323604999999901e+01
-5.197747956999999985e+01
-5.054980253000000090e+01
-5.029714843000000002e+01
-5.253276556000000141e+01
-5.372380016999999697e+01
-5.346138549999999867e+01
-5.177703028999999901e+01
-5.172800495999999981e+01
-5.565328724999999821e+01
-5.196062885999999992e+01
-5.120690909999999718e+01
-5.419636677999999819e+01
-5.144771309000000059e+01
-5.280389584000000269e+01
-5.207308325999999710e+01
-4.961958228000000304e+01
-5.165047776000000113e+01
-5.380017140999999725e+01
-5.375695551999999822e+01
-5.313062657999999772e+01
-5.061420225999999900e+01
-5.171785093999999816e+01
-5.112848463000000265e+01
-5.251046312999999799e+01
-5.391748914000000070e+01
-5.366686100999999809e+01
-5.217178707000000060e+01
-5.053017715000000010e+01
-5.198220228000000276e+01
-5.152707628000000284e+01
-5.326484063000000191e+01
-5.070606269000000310e+01
-5.036516369999999654e+01
-5.345884541000000212e+01
-5.082289865999999989e+01
-5.140659972000000266e+01
