-5.942279999999999784e-01 -1.094910000000000050e-01 7.483819999999999917e-01 3.219679999999999764e-01 1.153939999999999966e-01 -8.423979999999999801e-01 -1.257810000000000039e-01 -1.472930000000000073e-01 -1.727269999999999917e-01 4.432030000000000136e-01 -1.700750000000000040e-01 1.620897000000000032e+00 -5.972359999999999891e-01 -3.129539999999999988e+00 1.028245999999999993e+00 1.435656000000000043e+00 2.559524000000000132e+00 -4.389540000000000108e-01 2.431840000000000113e-01 8.587970000000000326e-01 -3.380049999999999999e-01 -5.106220000000000203e-01 -3.417599999999999805e-02 -1.298653000000000057e+00 -6.045049999999999590e-01 5.305360000000000076e-01 1.498850000000000016e+00 5.460739999999999483e-01 2.229520000000000113e-01 5.526480000000000281e-01 4.287200000000000039e-02 -3.856060000000000043e-01 -1.369286000000000003e+00 2.982460000000000111e-01 -4.207310000000000216e-01 -1.122355999999999909e+00 1.940179999999999960e-01 4.635369999999999768e-01 -7.065899999999999959e-02 4.834499999999999909e-02 -2.960990000000000011e-01 4.582300000000000262e-02 1.321080000000000032e-01 -2.108559999999999879e-01 2.236609999999999987e-01 -1.273301000000000016e+00 1.531299999999999883e-01 -6.547000000000000042e-02
-3.163116000000000039e+00 3.129967999999999861e+00 8.147501999999999356e+00 -1.200924000000000103e+00 -7.149790000000000312e-01 2.316429999999999878e-01 -7.416719999999999979e-01 6.833799999999999875e-01 1.765069999999999917e+00 3.153219999999999912e-01 1.596499999999999864e-01 -1.794429000000000052e+00 -5.662230000000000318e-01 -2.066570000000000074e-01 -5.053200000000000053e-02 -1.096189999999999942e-01 6.243729999999999558e-01 1.364730000000000110e-01 -1.627760000000000040e-01 9.750560000000000338e-01 -9.330249999999999932e-01 6.999520000000000186e-01 -5.032539999999999791e-01 -1.859280000000000099e-01 2.894760000000000111e-01 6.573809999999999931e-01 5.027479999999999727e-01 5.246769999999999490e-01 3.271410000000000151e-01 5.532430000000000403e-01 1.620060000000000111e-01 3.419659999999999922e-01 -9.986880000000000202e-01 6.592080000000000162e-01 8.224709999999999521e-01 -1.874599999999999878e-02 4.356829999999999870e-01 -1.188183999999999907e+00 -5.661359999999999726e-01 -1.165289999999999937e+00 -9.722830000000000084e-01 -2.973330000000000140e-01 4.462068999999999619e+00 -3.636225000000000041e+00 -6.843643000000000143e+00 -4.387739999999999974e-01 -4.998040000000000260e-01 3.517799999999999816e-01
4.054380000000000206e-01 2.116339999999999888e-01 7.280510000000000037e-01 3.250049999999999883e-01 -2.589150000000000063e-01 -3.488249999999999962e-01 -1.725093999999999905e+00 -1.177959999999999979e-01 5.072039999999999882e-01 3.670729999999999826e-01 1.281276000000000082e+00 -8.920810000000000128e-01 -1.665709000000000106e+00 -1.258834999999999926e+00 -2.775469999999999882e+00 1.319282999999999983e+00 1.324680000000000080e+00 3.555762000000000089e+00 8.383990000000000054e-01 -1.117579999999999962e-01 -1.141456999999999944e+00 -4.559960000000000124e-01 -1.132910000000000084e+00 -1.117760000000000004e-01 4.608709999999999751e-01 1.707513000000000059e+00 -2.779010000000000091e-01 5.384809999999999874e-01 -2.723599999999999910e-01 -1.312588000000000088e+00 7.829230000000000356e-01 -7.454509999999999748e-01 -1.857949999999999879e-01 -5.400049999999999573e-01 3.447900000000000270e-02 1.065100000000000074e-02 -1.046543999999999919e+00 4.538099999999999912e-01 -2.114679999999999893e-01 -6.259379999999999944e-01 -1.051261000000000001e+00 1.172884999999999955e+00 6.712600000000000511e-02 -8.147550000000000070e-01 8.349760000000000515e-01 9.546860000000000346e-01 7.506479999999999819e-01 4.478320000000000078e-01
9.671509999999999829e-01 2.189132999999999996e+00 1.214753999999999889e+00 8.940190000000000081e-01 8.944619999999999793e-01 -3.759890000000000176e-01 -9.220570000000000155e-01 -6.507200000000000484e-02 1.220749000000000084e+00 -7.823470000000000146e-01 1.212598000000000065e+00 2.037339999999999984e-01 1.421620000000000106e+00 1.239109999999999934e-01 1.335587999999999997e+00 6.374799999999999911e-02 -4.941690000000000249e-01 2.553130000000000122e-01 -9.805059999999999887e-01 -4.031410000000000271e-01 -7.618880000000000097e-01 -8.458899999999999753e-02 -4.221799999999999858e-02 -4.077040000000000108e-01 -1.330322000000000005e+00 -1.760661999999999949e+00 3.000570000000000181e-01 -3.353490000000000082e-01 1.360790000000000055e-01 -6.157049999999999468e-01 1.238279999999999936e-01 5.370699999999999780e-02 2.867959999999999954e-01 1.154612999999999889e+00 1.526430000000000009e-01 6.598669999999999813e-01 4.465359999999999885e-01 9.918799999999999839e-02 -4.251429999999999931e-01 1.986080000000000068e-01 5.457910000000000261e-01 -1.916539999999999910e+00 -5.718419999999999614e-01 -1.184561999999999893e+00 1.431699999999999917e-01 -2.631129999999999858e-01 -1.457686999999999955e+00 -1.117058000000000106e+00
2.495100000000000096e-01 -2.353850000000000109e-01 1.773898999999999893e+00 5.229200000000000514e-01 -1.312345000000000095e+00 -4.739909999999999957e-01 8.480400000000000438e-02 7.912099999999999689e-01 7.878140000000000143e-01 2.728630000000000222e-01 -7.391899999999999860e-02 4.264899999999999802e-01 2.999410000000000132e-01 -4.301019999999999843e-01 4.722270000000000079e-01 9.864300000000000290e-01 -1.815827999999999998e+00 -1.374569999999999959e-01 2.473589999999999955e-01 4.730099999999999860e-01 -5.186070000000000402e-01 -5.269300000000000095e-01 -3.799710000000000032e-01 -6.755980000000000318e-01 4.125770000000000270e-01 -6.519600000000000395e-02 -2.633399999999999977e-02 -1.415323000000000109e+00 -1.405499999999999979e-02 -1.364757999999999916e+00 -1.917964999999999920e+00 -4.181110000000000104e-01 -1.178795999999999955e+00 7.324700000000000655e-02 1.449650000000000105e-01 -3.320389999999999731e-01 2.586280000000000245e-01 1.178503000000000078e+00 1.227154999999999996e+00 -1.093177999999999983e+00 1.808843999999999896e+00 2.286529999999999951e-01 3.497700000000000253e-01 -3.102630000000000110e-01 5.311500000000000110e-01 1.195345000000000102e+00 6.586419999999999497e-01 -7.398080000000000211e-01
-1.050653999999999977e+00 1.128988000000000103e+00 4.890430000000000055e-01 3.555470000000000019e-01 -5.950029999999999486e-01 2.718599999999999836e-02 1.144455000000000000e+00 5.462709999999999511e-01 -5.630319999999999769e-01 -3.211120000000000196e+00 2.139730000000000132e+00 -6.091834999999999667e+00 7.630339999999999900e-01 -1.587270000000000070e-01 9.832250000000000156e-01 -1.541496999999999895e+00 -1.411759999999999959e-01 9.203510000000000302e-01 2.765457000000000054e+00 -1.731219999999999981e-01 5.544296000000000113e+00 6.553299999999999403e-02 -1.755087999999999981e+00 -1.993390999999999913e+00 -3.567200000000000232e-02 -1.719779999999999920e-01 -1.519929999999999892e-01 -1.108678000000000052e+00 -2.384590000000000043e-01 3.956970000000000209e-01 -5.681580000000000519e-01 2.494931999999999928e+00 -5.373320000000000318e-01 8.976809999999999512e-01 -4.802679999999999727e-01 4.441450000000000120e-01 7.446099999999999941e-02 2.687720000000000109e-01 -1.158309999999999951e+00 -7.813900000000000012e-02 -1.009299999999999954e-02 -3.326859999999999817e-01 8.703260000000000440e-01 -1.268394000000000021e+00 1.043434999999999890e+00 6.574240000000000084e-01 -1.586384999999999934e+00 9.812009999999999899e-01
4.078319999999999723e-01 -2.227551000000000059e+00 6.273870000000000280e-01 1.838859999999999939e-01 4.519090000000000051e-01 8.242749999999999799e-01 -1.996164000000000049e+00 7.615600000000000147e-02 4.801435999999999815e+00 -2.179780000000000051e-01 1.826310000000000100e+00 5.722399999999999709e-01 7.014709999999999557e-01 -1.172620000000000051e-01 1.713050000000000128e-01 -9.488839999999999497e-01 -2.818930000000000047e-01 1.071998999999999924e+00 -3.666699999999999821e-02 -1.096889999999999948e-01 -1.639853000000000005e+00 5.407220000000000359e-01 -1.294569999999999887e-01 -8.945689999999999475e-01 5.251940000000000497e-01 -2.151561000000000057e+00 -4.773140000000000160e-01 -9.740729999999999666e-01 -5.461439999999999628e-01 -7.600419999999999954e-01 2.708587000000000078e+00 -6.906189999999999829e-01 -4.040586000000000233e+00 -2.313139999999999918e-01 1.270161000000000096e+00 3.116720000000000046e-01 -1.119020000000000015e-01 2.641270000000000007e-01 -1.282006999999999897e+00 -8.809940000000000548e-01 1.909440000000000026e+00 -3.440179999999999905e-01 -5.459499999999999770e-02 4.990620000000000056e-01 7.893160000000000176e-01 3.848779999999999979e-01 -4.299000000000000044e-02 2.687599999999999989e-01
1.631420000000000092e-01 -4.487959999999999727e-01 8.263500000000000012e-02 -1.699700000000000169e-02 1.215656999999999988e+00 -8.388539999999999885e-01 2.173509999999999887e-01 -4.543690000000000229e-01 2.920999999999999985e-02 1.332572000000000090e+00 -1.347919999999999952e-01 -2.937460000000000071e-01 3.029237999999999875e+00 2.954769999999999897e-01 9.879879999999999773e-01 -6.128780000000000339e-01 -1.600489999999999968e-01 4.887600000000000278e-02 -3.564391000000000087e+00 -1.029304999999999914e+00 1.107941000000000065e+00 7.834560000000000413e-01 9.237260000000000471e-01 3.862499999999999822e-01 -8.929930000000000367e-01 1.725271999999999917e+00 -5.818410000000000526e-01 -1.907456999999999958e+00 -1.192878000000000105e+00 -8.067400000000000126e-01 3.502700000000000258e-02 4.333389999999999742e-01 -5.657900000000000151e-01 5.197869999999999990e-01 5.592899999999999539e-01 4.978199999999999986e-02 4.914810000000000012e-01 -1.701719999999999899e-01 -1.218944999999999945e+00 6.501339999999999897e-01 2.174889999999999879e-01 8.120169999999999888e-01 4.470720000000000249e-01 -1.437494999999999967e+00 6.518650000000000277e-01 -6.745440000000000325e-01 -3.423939999999999761e-01 1.493530000000000135e-01
-1.280777999999999972e+00 -7.796680000000000277e-01 -2.348590000000000122e-01 1.705699999999999994e-01 -1.629561000000000037e+00 -1.787090000000000067e+00 -5.886590000000000433e-01 -1.788730000000000042e-01 -8.263220000000000010e-01 5.825820000000000443e-01 1.588960000000000095e-01 1.090020000000000017e-01 4.269499999999999684e-02 9.576080000000000148e-01 1.325037000000000020e+00 -2.197870000000000101e-01 2.242659999999999931e-01 2.474339999999999873e-01 -5.641700000000000187e-02 8.946049999999999836e-01 -7.371229999999999727e-01 6.469199999999999950e-02 -2.604388999999999843e+00 -6.353189999999999671e-01 3.413559999999999928e-01 1.313930000000000042e+00 -4.928069999999999951e-01 -6.952549999999999564e-01 2.505600000000000049e-01 -8.696279999999999566e-01 2.495899999999999855e-02 -8.548600000000000643e-02 9.813800000000000301e-02 -7.672830000000000483e-01 1.393663000000000096e+00 9.233729999999999993e-01 1.116010000000000058e-01 2.573710000000000164e-01 -8.931799999999999462e-02 3.578629999999999867e-01 -5.379530000000000145e-01 1.059820999999999902e+00 8.024559999999999471e-01 -2.544040000000000190e-01 -2.205320000000000058e-01 1.109404999999999974e+00 6.194340000000000401e-01 2.130192999999999781e+00
-8.097769999999999690e-01 -3.530760000000000010e-01 3.654180000000000206e-01 1.372499999999999935e-02 -8.323530000000000095e-01 -1.197181000000000051e+00 -8.877660000000000551e-01 -1.356870000000000021e-01 -8.018000000000000821e-03 8.603119999999999656e-01 7.924870000000000525e-01 -5.838980000000000281e-01 -3.956359999999999877e-01 -3.603300000000000253e-02 8.539099999999999469e-02 -2.123399999999999940e-02 6.272929999999999895e-01 1.151350000000000096e+00 7.662999999999999812e-01 4.908589999999999898e-01 -9.843089999999999895e-01 -1.169939000000000062e+00 -3.809521000000000157e+00 -4.607350000000000056e-01 4.540120000000000267e-01 2.060102000000000100e+00 -4.135510000000000019e-01 -2.198380000000000056e-01 4.022400000000000281e-02 -1.189705999999999930e+00 2.494790000000000063e-01 -3.144560000000000133e-01 -5.444000000000000228e-02 -8.498029999999999751e-01 8.511689999999999534e-01 3.364730000000000221e-01 -4.046339999999999937e-01 3.668790000000000107e-01 1.719100000000000142e-02 -1.756469999999999976e-01 -1.120684000000000013e+00 1.423445999999999989e+00 6.572580000000000089e-01 -9.891550000000000065e-01 2.713869999999999894e-01 1.933187999999999906e+00 2.361952000000000051e+00 1.241182000000000007e+00
-1.521706999999999921e+00 -3.733899999999999997e-01 -1.325779000000000041e+00 3.172862999999999989e+00 -1.752489999999999881e-01 2.818030000000000257e-01 1.724714000000000080e+00 -4.481319999999999748e-01 -1.715422999999999920e+00 2.482719999999999927e-01 -1.704979000000000022e+00 -5.385875999999999664e+00 5.798170000000000268e-01 1.270186000000000037e+00 -1.539771999999999919e+00 7.691649999999999876e-01 1.000272000000000050e+00 2.139746999999999844e+00 -6.369040000000000257e-01 -6.037000000000000144e-01 8.004459999999999908e-01 -1.103626999999999914e+00 -9.497659999999999991e-01 1.210752999999999968e+00 -1.503894000000000064e+00 -1.955492999999999926e+00 3.217108000000000079e+00 -2.744829999999999770e-01 -7.439980000000000482e-01 -1.543454000000000104e+00 7.216820000000000457e-01 1.065930999999999962e+00 3.077900000000000080e-02 3.475059999999999816e-01 5.481880000000000086e-01 -9.935000000000000497e-01 -1.072521999999999975e+00 -3.771269999999999900e-01 -7.207799999999999763e-01 1.166932999999999998e+00 6.501099999999999934e-02 2.151076000000000210e+00 -2.898458999999999897e+00 3.489681000000000033e+00 2.555838000000000054e+00 2.806420000000000026e-01 -1.074330000000000007e-01 8.370339999999999447e-01
-1.242695000000000105e+00 -8.138889999999999736e-01 -4.378670000000000062e-01 2.809510000000000063e-01 2.223380000000000078e-01 1.945129999999999915e-01 -1.104090999999999934e+00 3.986399999999999666e-02 -1.752304000000000084e+00 -1.412585999999999897e+00 3.401623999999999981e+00 -7.291999999999999871e-02 1.755576999999999943e+00 -2.833000000000000101e-02 -3.829540000000000166e-01 7.129630000000000134e-01 4.407179999999999986e-01 1.528693999999999997e+00 -5.235689999999999511e-01 1.315519000000000105e+00 -2.327297999999999867e+00 6.773270000000000124e-01 -3.537440000000000029e-01 -5.162060000000000537e-01 3.305070000000000174e+00 -3.209680999999999784e+00 -1.815744999999999942e+00 3.378749999999999809e-01 2.678659999999999930e-01 1.955055999999999905e+00 -1.476976999999999984e+00 -6.323079999999999812e-01 1.274294999999999956e+00 -1.332902999999999949e+00 1.471310000000000118e-01 1.301980000000000082e-01 -4.412369999999999903e-01 1.158328000000000024e+00 -7.559949999999999726e-01 1.074127999999999972e+00 -1.391262999999999916e+00 3.219339999999999868e+00 -5.785700000000000287e-01 3.387930000000000108e-01 -7.149999999999999412e-02 -3.126299999999999912e-02 -9.029669999999999641e-01 -1.693050000000000110e-01
-9.346919999999999673e-01 1.930425000000000058e+00 -9.755300000000000082e-02 6.423360000000000181e-01 1.833760000000000112e-01 1.049155999999999977e+00 -2.125125000000000153e+00 6.286340000000000261e-01 -7.397860000000000547e-01 4.240229999999999833e-01 -4.168029999999999791e-01 -2.841640000000000277e-01 1.097728999999999955e+00 1.546999999999999931e+00 -5.698649999999999549e-01 6.004770000000000385e-01 9.482899999999999663e-02 1.903410000000000046e+00 2.766700000000000270e-01 -1.116486000000000089e+00 1.120990000000000042e-01 1.439210000000000100e+00 2.805399999999999908e-02 -5.774510000000000476e-01 -1.454134999999999955e+00 -1.890999999999999903e-01 -3.418820000000000192e-01 -7.179759999999999476e-01 -2.290700000000000028e-02 -1.310499999999999998e+00 1.638560999999999934e+00 -8.356219999999999759e-01 4.384600000000000303e-02 1.711870000000000058e-01 -1.286848999999999910e+00 2.061590000000000089e-01 1.776679999999999926e-01 -3.590709999999999735e-01 6.472769999999999913e-01 -2.050352000000000174e+00 7.539040000000000186e-01 1.054739999999999983e-01 -1.911660000000000026e-01 2.438770000000000104e-01 1.295620000000000105e-01 1.005584000000000033e+00 -1.183260999999999896e+00 -2.757800000000000251e-01
7.808450000000000113e-01 3.283449999999999980e-01 1.318186999999999998e+00 -2.149439999999999962e-01 -3.218150000000000177e-01 6.512700000000000433e-02 -2.447280000000000011e-01 -7.549899999999999667e-02 1.498529999999999862e-01 1.401493000000000100e+00 1.594319999999999904e-01 1.466385999999999967e+00 -1.090446999999999944e+00 -9.322000000000000425e-03 1.278591000000000033e+00 7.284070000000000267e-01 8.235890000000000155e-01 4.598289999999999877e-01 1.392519999999999869e-01 1.716270000000000018e-01 -3.164370000000000238e-01 -4.935809999999999920e-01 1.011390000000000067e-01 -1.582179000000000002e+00 -1.165560000000000068e-01 1.505120000000000069e-01 1.396930000000000116e-01 -8.751599999999999657e-02 -3.396930000000000227e-01 2.494629999999999903e-01 6.919779999999999820e-01 -7.388780000000000348e-01 -1.493266999999999900e+00 5.808300000000000268e-02 -2.463289999999999924e-01 -1.161801000000000084e+00 -1.283999999999999985e-03 3.053850000000000176e-01 -2.035039999999999905e-01 2.316860000000000031e-01 -2.821659999999999724e-01 -2.624810000000000199e-01 1.625300000000000009e-02 -1.780009999999999926e-01 3.362319999999999753e-01 -1.798939999999999984e+00 1.516740000000000033e-01 -4.436910000000000021e-01
1.217575999999999992e+00 1.250520999999999994e+00 1.136250000000000038e-01 -3.503240000000000243e-01 -8.527759999999999785e-01 9.876979999999999649e-01 -2.830329999999999790e-01 2.305700000000000111e-02 5.154440000000000133e-01 5.161329999999999529e-01 4.851179999999999937e-01 5.298190000000000399e-01 -4.683339999999999725e-01 1.182190999999999992e+00 3.269000000000000239e-01 1.140960000000000030e-01 -3.279800000000000076e-02 3.162700000000000233e-02 -1.088630000000000014e-01 -6.097000000000000336e-02 -3.481549999999999923e-01 -7.118499999999999828e-02 6.983100000000000418e-02 -6.697509999999999852e-01 1.116309999999999941e-01 -3.184580000000000188e-01 -4.811920000000000086e-01 -8.266759999999999664e-01 -1.141834999999999933e+00 6.386249999999999982e-01 6.205039999999999445e-01 -9.295480000000000409e-01 -7.063519999999999799e-01 -2.105390000000000039e-01 4.730630000000000113e-01 -6.174180000000000224e-01 -1.621900000000000078e-02 -2.728600000000000123e-02 -2.260250000000000037e-01 3.746300000000000185e-01 -2.018510000000000026e-01 -5.066950000000000065e-01 -2.094669999999999865e-01 1.706840000000000024e-01 4.977099999999999858e-01 -4.099320000000000186e-01 -8.894100000000000616e-02 -8.585900000000000476e-02
-1.059487000000000068e+00 1.450529999999999875e-01 -2.692109999999999781e-01 1.080197000000000074e+00 2.439759999999999984e-01 -1.050548000000000037e+00 5.578790000000000138e-01 -5.784799999999999665e-02 -1.425960000000000005e-01 -1.447068999999999939e+00 9.701990000000000336e-01 1.234720999999999957e+00 1.265719999999999901e-01 -9.290400000000000047e-02 -2.552789999999999782e-01 1.132678000000000074e+00 8.297599999999999421e-02 3.281689999999999885e-01 1.706099999999999978e-02 -1.507310000000000039e-01 1.303020000000000012e-01 1.971880000000000022e-01 6.226699999999999458e-01 1.316454000000000013e+00 9.655890000000000306e-01 2.439769999999999994e-01 -6.867870000000000363e-01 5.291109999999999980e-01 -1.631979999999999986e+00 -5.377610000000000445e-01 -7.377920000000000034e-01 -3.361279999999999824e-01 1.341672999999999893e+00 5.033060000000000311e-01 -4.133300000000000168e-02 7.217569999999999819e-01 -2.380523999999999862e+00 2.437708999999999904e+00 -5.390055000000000263e+00 3.664305000000000145e+00 -2.531925999999999899e+00 4.121884999999999799e+00 -2.765683000000000114e+00 4.484899999999999998e-02 -1.363274000000000097e+00 -3.833309999999999773e-01 5.144300000000000261e-02 5.005500000000000504e-01
-8.436630000000000518e-01 -4.258549999999999836e-01 -1.015684999999999949e+00 -1.827479000000000076e+00 1.962045000000000039e+00 -1.707786000000000026e+00 -1.139130000000000004e-01 1.361690000000000123e-01 -3.701999999999999996e-03 -1.433038000000000034e+00 -2.367899999999999866e-02 1.483527000000000040e+00 4.894560000000000022e-01 1.220600000000000018e-01 -1.596839999999999926e-01 3.806439999999999824e-01 -7.799099999999999921e-01 -2.234629999999999950e-01 -4.129079999999999973e-01 6.523550000000000182e-01 -2.245439999999999936e-01 1.745411999999999964e+00 2.086419999999999941e-01 7.609050000000000535e-01 -4.754699999999999899e-02 -2.357090000000000019e-01 4.894680000000000142e-01 -8.368599999999999650e-02 -3.945440000000000058e-01 -2.810179999999999900e-01 1.238274000000000097e+00 -4.992903000000000091e+00 2.742532999999999888e+00 -2.814852000000000132e+00 4.062859999999999694e+00 -2.782074999999999854e+00 2.653519999999999879e+00 -5.510620000000000518e-01 2.369360000000000077e-01 1.225060000000000038e-01 -1.026129999999999959e-01 1.121499999999999997e-01 4.243999999999999995e-01 8.996500000000000330e-02 -1.321910000000000029e-01 5.228730000000000322e-01 2.721799999999999775e-01 7.046289999999999498e-01
1.116362999999999994e+00 1.203866000000000103e+00 -6.854649999999999910e-01 9.615600000000000536e-02 -1.378724000000000061e+00 2.605265999999999860e+00 -8.581600000000000339e-02 1.954470000000000096e-01 6.747640000000000304e-01 -5.501230000000000286e-01 1.694829999999999948e-01 -5.302949999999999608e-01 -7.357500000000000151e-02 1.785187999999999997e+00 -8.631389999999999896e-01 -1.290410000000000057e+00 -2.476679999999999993e-01 -1.362341999999999942e+00 -1.317566000000000015e+00 1.569280000000000119e-01 -2.463700000000000057e-01 4.592390000000000083e-01 1.054899999999999935e-02 3.825999999999999956e-01 2.918299999999999783e-01 -9.139659999999999451e-01 -1.009023999999999921e+00 -8.329790000000000250e-01 -1.266574000000000089e+00 7.181380000000000541e-01 1.431305000000000049e+00 -1.800902999999999921e+00 2.215010000000000034e-01 -3.427709999999999924e-01 1.532140999999999975e+00 -4.712620000000000142e-01 2.022399999999999892e-02 -2.856400000000000050e-01 -9.966099999999999959e-02 4.108430000000000137e-01 -2.099959999999999882e-01 -5.840290000000000203e-01 -1.836609999999999909e-01 1.218026000000000053e+00 9.993419999999999526e-01 8.509409999999999474e-01 -1.681549999999999989e-01 2.499760000000000038e-01
-4.186239999999999961e-01 2.523264999999999869e+00 -6.682200000000000362e-01 3.670820000000000194e-01 -6.979020000000000223e-01 1.754807999999999923e+00 -3.109120000000000217e-01 7.045700000000000573e-02 4.546499999999999986e-01 1.990059999999999885e-01 2.431109999999999938e-01 -1.190670000000000062e-01 -2.086369999999999891e-01 4.108939999999999815e-01 -6.884599999999999609e-01 1.791412000000000004e+00 -1.521735999999999978e+00 1.726312999999999986e+00 -4.755030000000000090e-01 -2.158500000000000002e-02 1.225476000000000010e+00 -8.878460000000000241e-01 -7.636060000000000070e-01 -1.353020000000000056e-01 -1.684219999999999884e-01 -4.552209999999999868e-01 -2.056270000000000042e-01 -8.623469999999999747e-01 1.933249999999999968e-01 8.508580000000000032e-01 7.703299999999999592e-01 1.205305999999999989e+00 -3.487910000000000177e-01 1.258500000000000070e-02 -1.966410000000000102e-01 -9.632749999999999924e-01 -2.616959999999999842e-01 -2.561370000000000036e-01 -3.913289999999999824e-01 8.123399999999999510e-01 -1.148951999999999973e+00 -2.390652000000000221e+00 -6.660559999999999814e-01 -4.935519999999999907e-01 -1.114630000000000065e-01 3.072889999999999788e-01 9.089749999999999774e-01 1.008200000000000068e-02
-1.722290000000000099e+00 1.985276000000000041e+00 -2.327819999999999889e-01 4.943919999999999981e-01 7.141999999999999738e-02 9.873990000000000267e-01 -1.425991999999999926e+00 3.198489999999999944e-01 2.517949999999999910e-01 3.226720000000000144e-01 -3.677659999999999818e-01 -5.552570000000000006e-01 9.130150000000000210e-01 1.584448999999999996e+00 -1.101418999999999926e+00 3.878199999999999703e-02 3.901510000000000256e-01 1.743646999999999947e+00 1.349229999999999874e-01 -1.316891999999999951e+00 -1.820257000000000014e+00 3.964809999999999723e-01 2.541050000000000253e-01 -1.669019999999999948e-01 -4.666300000000000309e-02 7.222690000000000499e-01 1.144430999999999976e+00 -9.065499999999999670e-01 5.535879999999999690e-01 -1.968237999999999932e+00 3.421719999999999762e-01 -1.115083000000000046e+00 -3.019700000000000162e-01 3.715519999999999934e-01 -1.401663000000000103e+00 9.878989999999999716e-01 6.333980000000000166e-01 7.335500000000000353e-02 -1.384930000000000050e-01 -1.067406999999999995e+00 3.928980000000000250e-01 4.591540000000000066e-01 4.068829999999999947e-01 1.794320000000000082e-01 1.986769999999999925e-01 1.114632999999999985e+00 -2.325387999999999789e+00 5.123170000000000224e-01
1.293188000000000004e+00 -1.422436999999999951e+00 -2.155297000000000018e+00 -1.927702999999999944e+00 -2.795079999999999787e-01 -2.276449999999999863e-01 4.272460000000000147e-01 9.603930000000000522e-01 -4.075380000000000114e-01 -2.551080000000000014e-01 1.336510000000000087e+00 5.896799999999999958e-02 -4.087583000000000411e+00 5.604851000000000028e+00 -1.115528999999999993e+00 8.270579999999999599e-01 6.520569999999999977e-01 2.293178000000000161e+00 -5.441460000000000186e-01 -6.034000000000000301e-03 9.840590000000000170e-01 -2.353381000000000167e+00 2.105458000000000052e+00 1.295112999999999959e+00 -6.168529999999999847e-01 -8.683689999999999465e-01 -9.309490000000000265e-01 1.978231999999999990e+00 2.384979999999999878e-01 3.343479999999999785e-01 -4.165150000000000241e-01 -7.093519999999999825e-01 9.982529999999999459e-01 7.115420000000000078e-01 -1.008915999999999924e+00 -8.507419999999999982e-01 -5.093000000000000305e-02 -1.793118999999999907e+00 3.429317000000000171e+00 2.831879999999999953e-01 6.761800000000000033e-01 -2.671663999999999817e+00 1.373723000000000027e+00 3.153110000000000079e-01 1.100503000000000009e+00 3.358041000000000054e+00 -5.801523000000000430e+00 -2.134377000000000191e+00
1.233163000000000009e+00 2.706740000000000257e-01 3.424376999999999782e+00 4.795100000000000057e-02 -9.939310000000000089e-01 4.140679999999999916e-01 -6.276519999999999877e-01 2.658933999999999909e+00 7.752440000000000442e-01 -1.154644000000000004e+00 -1.904938000000000020e+00 -5.779700000000000115e-02 6.190839999999999677e-01 -6.151919999999999611e-01 -2.469629999999999881e-01 -6.851580000000000448e-01 2.767419999999999880e-01 2.108730000000000049e-01 -1.355750000000000011e-01 3.765689999999999871e-01 1.582400000000000126e-02 1.383253999999999984e+00 -1.681794000000000011e+00 -1.797729999999999884e-01 1.275390000000000024e+00 -1.268917000000000073e+00 -3.686409999999999965e-01 -2.933970000000000189e-01 -8.012960000000000083e-01 6.785459999999999825e-01 -1.000728999999999980e+00 8.158760000000000456e-01 -1.462892999999999999e+00 -2.386867000000000072e+00 -2.225391999999999815e+00 2.947609999999999952e-01 1.904959999999999987e+00 1.416314999999999991e+00 -1.402735000000000065e+00 -2.146987999999999897e+00 2.309930000000000039e-01 2.279663000000000217e+00 2.265225000000000044e+00 2.939839999999999787e+00 2.107657000000000114e+00 -2.980169999999999764e-01 5.055180000000000229e-01 -6.482211000000000389e+00
-1.522010000000000030e-01 -2.407469999999999888e-01 -3.264360000000000039e-01 -1.985389999999999933e-01 -3.761610000000000231e-01 -9.593200000000000338e-02 5.293710000000000360e-01 2.094519999999999993e-01 -9.773500000000000243e-02 1.262691999999999926e+00 -1.111428000000000083e+00 -5.727499999999999952e-02 -2.709710000000000174e-01 -3.310460000000000069e-01 5.036319999999999686e-01 -9.660699999999999843e-01 -1.567900000000000127e-01 5.186999999999999944e-02 -2.784349999999999881e-01 -2.376119999999999899e-01 -5.174630000000000063e-01 1.068094000000000099e+00 1.052299999999999937e-02 6.303860000000000019e-01 -5.621099999999999708e-02 -5.198040000000000438e-01 1.053404999999999925e+00 -7.305080000000000462e-01 5.126129999999999853e-01 -8.457390000000000185e-01 -5.182500000000000301e-02 1.485946999999999907e+00 -1.684554000000000107e+00 5.955850000000000311e-01 8.025670000000000304e-01 3.519229999999999858e-01 -3.892700000000000049e-01 1.810200000000000004e-02 -2.545629999999999837e-01 -1.993099999999999872e-01 -6.499080000000000412e-01 1.033651000000000098e+00 2.444199999999999984e-01 1.977099999999999969e-01 2.530999999999999830e-03 -4.068209999999999882e-01 3.865830000000000100e-01 2.522969999999999935e-01
-2.911000000000000046e-02 -3.377589999999999759e-01 -6.742800000000000182e-02 1.564099999999999865e-02 1.826230000000000075e-01 -2.257780000000000065e-01 2.300800000000000067e-01 -3.059459999999999957e-01 -1.565030000000000032e-01 2.467325000000000212e+00 -9.419929999999999692e-01 -4.029369999999999896e-01 1.259371999999999936e+00 1.920439999999999925e-01 6.706039999999999779e-01 -1.179654999999999898e+00 -1.915179999999999938e-01 7.071299999999999808e-02 -1.578419000000000016e+00 -5.107159999999999478e-01 -8.190200000000000258e-02 1.257185999999999915e+00 3.479940000000000255e-01 5.913399999999999768e-01 -6.738290000000000113e-01 6.308040000000000314e-01 2.782339999999999813e-01 -2.214935999999999794e+00 -2.714099999999999846e-01 1.403570000000000095e-01 -1.633390000000000120e-01 1.611189999999999900e+00 -1.566545999999999994e+00 7.845710000000000184e-01 7.381739999999999968e-01 2.354380000000000084e-01 4.545560000000000156e-01 -1.627550000000000108e-01 -1.068359000000000059e+00 -1.643020000000000036e-01 -6.552810000000000024e-01 9.413089999999999513e-01 1.459149999999999892e-01 -5.291700000000000292e-01 4.906670000000000198e-01 -6.110539999999999861e-01 2.037170000000000092e-01 1.507920000000000094e-01