-7.747999999999999332e-02 1.049330000000000096e+00 1.152929999999999922e+01 -2.566999999999999837e-02 -1.266500000000000126e-01 4.609239999999999782e+00 2.196600000000000108e+00 2.396959999999999980e+00 1.230100000000000016e+01 -1.767000000000000168e-02 1.308140000000000081e+00 2.312679999999999847e+00 2.218319999999999848e+00 2.523750000000000160e+00 7.685489999999999711e+00 4.479800000000000004e+00 2.482219999999999871e+00 9.220850000000000435e+00 2.264029999999999987e+00 1.347159999999999913e+00 7.752200000000000202e-01 4.403299999999999770e+00 2.134980000000000100e+00 2.166270000000000095e+01 4.502209999999999823e+00 1.173599999999999977e+00 6.916529999999999845e+00 2.208309999999999995e+00 1.092070000000000096e+00 9.994849999999999568e+00 2.258879999999999999e+00 -8.405999999999999583e-02 3.076610000000000067e+00 2.235599999999999810e+00 1.222769999999999913e+00 5.385069999999999801e+00
4.493059999999999832e+00 2.735380000000000145e+00 1.257699999999999929e-01 -1.053800000000000014e-01 2.002999999999999919e-02 4.731939999999999813e+00 1.950409999999999977e+00 1.320980000000000043e+00 1.013189999999999991e+01 -1.793299999999999894e-01 1.373580000000000023e+00 7.031310000000000393e+00 4.441379999999999661e+00 1.350279999999999925e+00 2.380930000000000213e+00 1.850780000000000092e+00 2.731300000000000061e+00 1.235440000000000005e+01 2.166630000000000056e+00 3.459000000000000269e-02 3.154139999999999944e+00 -3.006699999999999928e-01 1.386030000000000095e+00 1.167149999999999999e+01 4.236299999999999955e+00 2.700530000000000097e+00 9.367950000000000443e+00 2.107699999999999907e+00 1.387100000000000000e+00 5.432419999999999582e+00 2.216819999999999791e+00 1.412560000000000038e+00 7.925299999999999567e-01 2.105710000000000193e+00 -1.115999999999999978e-02 7.781399999999999650e+00
4.481429999999999580e+00 2.706989999999999785e+00 8.046999999999999986e-02 4.363410000000000011e+00 2.736169999999999991e+00 4.640030000000000321e+00 2.040630000000000166e+00 1.413380000000000081e+00 1.022460000000000058e+01 4.318100000000000271e+00 1.256709999999999994e+00 7.042760000000000353e+00 -7.563999999999999890e-02 1.411480000000000068e+00 2.402239999999999931e+00 1.911929999999999907e+00 2.599999999999999881e-03 1.242520000000000024e+01 2.192660000000000053e+00 4.488000000000000322e-02 3.041110000000000202e+00 -3.052099999999999813e-01 1.402230000000000087e+00 1.173509999999999920e+01 -2.142100000000000115e-01 -6.020000000000000177e-03 9.399269999999999570e+00 2.066390000000000171e+00 1.297760000000000025e+00 5.490470000000000184e+00 2.208330000000000126e+00 1.433459999999999956e+00 7.523699999999999832e-01 1.995589999999999975e+00 2.741579999999999906e+00 7.722470000000000390e+00
2.206539999999999946e+00 1.844200000000000006e-01 7.712920000000000442e+00 2.202980000000000160e+00 1.494129999999999958e+00 5.395030000000000214e+00 -1.133200000000000041e-01 2.839760000000000062e+00 4.623240000000000016e+00 4.363749999999999574e+00 4.796699999999999853e-01 1.975300000000000011e+01 2.262630000000000141e+00 7.563000000000000278e-02 3.082209999999999894e+00 -1.130199999999999955e-01 1.529900000000000038e+00 6.938290000000000290e+00 4.538540000000000241e+00 1.420709999999999917e+00 2.307529999999999859e+00 4.422950000000000159e+00 1.641399999999999970e+00 1.156419999999999959e+01 2.152709999999999901e+00 2.954800000000000204e-01 1.233150000000000013e+01 -1.077400000000000024e-01 2.223100000000000076e-01 9.248680000000000234e+00 2.264040000000000052e+00 1.379199999999999982e+00 7.672900000000000276e-01 2.148989999999999956e+00 1.605210000000000026e+00 1.002180000000000071e+01
4.018880000000000230e+00 1.313609999999999944e+00 1.140620000000000012e+01 2.272200000000000220e+00 5.459899999999999753e-01 5.052399999999999558e+00 4.098069999999999879e+00 9.225999999999999479e-02 8.590669999999999362e+00 2.767000000000000015e-01 1.849550000000000027e+00 3.964890000000000025e+00 2.594959999999999933e+00 1.115999999999999978e-02 1.749159999999999826e+01 2.258280000000000065e+00 2.056280000000000108e+00 7.370680000000000121e+00 2.237099999999999866e+00 -4.540999999999999898e-02 1.193510000000000026e+01 6.241799999999999571e-01 9.738200000000000189e-01 1.672729999999999961e+01 1.910000000000000031e-01 9.020200000000000440e-01 6.404639999999999667e+00 7.994999999999999329e-02 1.882099999999999884e-01 1.592240000000000100e+00 2.046419999999999906e+00 1.288520000000000110e+00 9.756159999999999499e+00 2.245480000000000143e+00 1.377180000000000071e+00 2.491969999999999796e+00
2.159679999999999822e+00 -2.238300000000000012e-01 1.234950000000000081e+01 2.038120000000000154e+00 2.611650000000000027e+00 7.788949999999999818e+00 -9.273000000000000687e-02 1.298589999999999911e+00 6.932470000000000354e+00 2.241969999999999796e+00 1.417569999999999997e+00 8.313399999999999679e-01 2.187860000000000138e+00 2.716629999999999878e+00 3.081850000000000200e+00 -1.672999999999999834e-02 1.290170000000000039e+00 2.346569999999999823e+00 2.147320000000000118e+00 1.208210000000000006e+00 5.500239999999999796e+00 -1.639500000000000124e-01 2.558840000000000003e+00 9.309350000000000236e+00 4.482899999999999885e+00 3.407000000000000306e-02 1.926999999999999894e-02 4.269370000000000331e+00 1.184039999999999981e+00 1.153689999999999927e+01 2.107149999999999856e+00 1.153469999999999995e+00 1.002669999999999995e+01 4.460919999999999774e+00 -8.988999999999999768e-02 4.571130000000000138e+00
-7.747999999999999332e-02 1.049330000000000096e+00 1.152929999999999922e+01 -2.566999999999999837e-02 -1.266500000000000126e-01 4.609239999999999782e+00 2.196600000000000108e+00 2.396959999999999980e+00 1.230100000000000016e+01 -1.767000000000000168e-02 1.308140000000000081e+00 2.312679999999999847e+00 2.218319999999999848e+00 2.523750000000000160e+00 7.685489999999999711e+00 4.479800000000000004e+00 2.482219999999999871e+00 9.220850000000000435e+00 2.264029999999999987e+00 1.347159999999999913e+00 7.752200000000000202e-01 4.403299999999999770e+00 2.134980000000000100e+00 2.166270000000000095e+01 4.502209999999999823e+00 1.173599999999999977e+00 6.916529999999999845e+00 2.208309999999999995e+00 1.092070000000000096e+00 9.994849999999999568e+00 2.258879999999999999e+00 -8.405999999999999583e-02 3.076610000000000067e+00 2.235599999999999810e+00 1.222769999999999913e+00 5.385069999999999801e+00
2.127229999999999954e+00 1.260680000000000023e+00 1.013509999999999955e+01 2.248780000000000001e+00 -9.421999999999999820e-02 1.249280000000000079e+01 6.567000000000000615e-02 1.408239999999999936e+00 2.280450000000000088e+00 -8.519000000000000183e-02 1.259609999999999896e+00 1.166999999999999993e+01 -1.167999999999999941e-02 3.269999999999999990e-02 4.797579999999999956e+00 2.329569999999999919e+00 1.077210000000000001e+00 1.056669999999999998e+00 2.185569999999999791e+00 2.569939999999999891e+00 7.685509999999999842e+00 4.451640000000000263e+00 2.673760000000000137e+00 2.184300000000000130e-01 2.003740000000000077e+00 1.377920000000000034e+00 5.288929999999999687e+00 4.175910000000000011e+00 -3.404000000000000081e-02 9.179370000000000474e+00 -2.139999999999999975e-03 1.130130000000000079e+00 7.000639999999999752e+00 2.343490000000000073e+00 2.401159999999999961e+00 3.121399999999999952e+00
2.033679999999999932e+00 2.522949999999999804e+00 1.238429999999999964e+01 2.166970000000000063e+00 -1.601499999999999868e-01 7.748350000000000293e+00 -1.311900000000000011e-01 1.244159999999999933e+00 6.965679999999999872e+00 2.225800000000000001e+00 1.377539999999999987e+00 7.783499999999999863e-01 2.237600000000000033e+00 -6.187000000000000138e-02 3.093710000000000182e+00 -6.754999999999999893e-02 1.344799999999999995e+00 2.320699999999999985e+00 2.160460000000000047e+00 1.284089999999999954e+00 5.412279999999999980e+00 4.342730000000000423e+00 2.584579999999999878e+00 9.283979999999999677e+00 -2.736100000000000199e-01 -4.232899999999999996e-01 1.983719999999999928e+01 -1.945099999999999885e-01 1.147289999999999921e+00 1.160219999999999985e+01 2.094510000000000094e+00 1.181769999999999987e+00 1.006209999999999916e+01 4.479429999999999801e+00 -9.668000000000000205e-02 4.645419999999999661e+00
2.175489999999999924e+00 2.832450000000000134e+00 7.720299999999999940e+00 2.187190000000000190e+00 1.695789999999999909e+00 5.387120000000000353e+00 4.463009999999999700e+00 2.038999999999999979e-01 4.614899999999999558e+00 4.472719999999999807e+00 2.581119999999999859e+00 5.247000000000000275e-02 2.341410000000000213e+00 2.773109999999999964e+00 3.229359999999999786e+00 4.347739999999999938e+00 1.509959999999999969e+00 7.006409999999999805e+00 4.334999999999999964e-02 1.525979999999999892e+00 2.369050000000000100e+00 -4.265999999999999653e-02 1.654760000000000009e+00 1.138260000000000005e+01 2.149999999999999911e+00 3.005100000000000104e+00 1.221979999999999933e+01 4.477330000000000254e+00 3.305500000000000105e-01 9.134019999999999584e+00 2.094700000000000006e+00 1.225600000000000023e+00 7.647399999999999753e-01 2.161080000000000112e+00 1.553660000000000041e+00 1.010720000000000063e+01
1.967649999999999899e+00 -6.542000000000000592e-02 1.206489999999999974e+01 2.203850000000000087e+00 2.485650000000000137e+00 7.791489999999999583e+00 4.217979999999999841e+00 1.259730000000000016e+00 6.972579999999999778e+00 2.309039999999999981e+00 1.331139999999999990e+00 7.015200000000000324e-01 2.241280000000000161e+00 4.515999999999999875e-02 3.270620000000000083e+00 1.473899999999999932e-01 1.305039999999999978e+00 2.542850000000000055e+00 1.951899999999999968e+00 1.521500000000000075e+00 5.352879999999999860e+00 4.250429999999999708e+00 2.316419999999999924e+00 9.261689999999999756e+00 2.290000000000000022e-02 2.620449999999999946e+00 7.446999999999999453e-02 -1.834099999999999897e-01 1.253139999999999921e+00 1.154989999999999917e+01 2.164839999999999876e+00 1.116020000000000012e+00 1.003299999999999947e+01 -1.735000000000000084e-02 -2.930999999999999925e-02 4.678329999999999878e+00
2.184569999999999901e+00 2.164300000000000113e-01 7.695890000000000342e+00 2.193890000000000118e+00 1.452669999999999906e+00 5.361909999999999954e+00 -8.758000000000000507e-02 2.833040000000000003e+00 4.592769999999999797e+00 -2.149800000000000044e-01 4.735800000000000010e-01 1.974360000000000070e+01 2.262449999999999850e+00 9.084000000000000408e-02 3.100439999999999863e+00 -9.020000000000000240e-02 1.514739999999999975e+00 6.952899999999999636e+00 -2.597000000000000003e-02 1.425270000000000037e+00 2.329110000000000014e+00 4.394490000000000229e+00 1.647559999999999913e+00 1.155250000000000021e+01 2.130830000000000002e+00 2.998130000000000184e+00 1.235469999999999935e+01 4.456489999999999618e+00 2.665899999999999936e-01 9.259850000000000136e+00 2.247660000000000213e+00 1.365550000000000042e+00 7.647800000000000153e-01 2.116210000000000147e+00 1.615450000000000053e+00 1.003720000000000034e+01
2.033679999999999932e+00 2.522949999999999804e+00 1.238429999999999964e+01 2.166970000000000063e+00 -1.601499999999999868e-01 7.748350000000000293e+00 -1.311900000000000011e-01 1.244159999999999933e+00 6.965679999999999872e+00 2.225800000000000001e+00 1.377539999999999987e+00 7.783499999999999863e-01 2.237600000000000033e+00 -6.187000000000000138e-02 3.093710000000000182e+00 -6.754999999999999893e-02 1.344799999999999995e+00 2.320699999999999985e+00 2.160460000000000047e+00 1.284089999999999954e+00 5.412279999999999980e+00 4.342730000000000423e+00 2.584579999999999878e+00 9.283979999999999677e+00 -2.736100000000000199e-01 -4.232899999999999996e-01 1.983719999999999928e+01 -1.945099999999999885e-01 1.147289999999999921e+00 1.160219999999999985e+01 2.094510000000000094e+00 1.181769999999999987e+00 1.006209999999999916e+01 4.479429999999999801e+00 -9.668000000000000205e-02 4.645419999999999661e+00
2.207749999999999879e+00 -1.828700000000000048e-01 1.225810000000000066e+01 1.991719999999999935e+00 2.595540000000000180e+00 7.822510000000000296e+00 -6.300000000000000044e-02 1.347029999999999950e+00 6.902350000000000207e+00 2.256240000000000023e+00 1.453850000000000087e+00 8.962999999999999856e-01 2.208320000000000061e+00 2.707430000000000003e+00 3.076789999999999914e+00 3.137999999999999817e-02 1.240359999999999907e+00 2.363370000000000193e+00 2.137739999999999974e+00 1.136719999999999953e+00 5.576760000000000161e+00 -1.309099999999999986e-01 2.535779999999999923e+00 9.327930000000000277e+00 4.421999999999999709e+00 6.277000000000000635e-02 9.797000000000000153e-02 4.198129999999999917e+00 1.220450000000000035e+00 1.146149999999999913e+01 2.117370000000000196e+00 1.129280000000000062e+00 9.999850000000000350e+00 4.445140000000000313e+00 -8.680000000000000215e-02 4.510880000000000223e+00
3.875119999999999898e+00 2.708099999999999952e+00 2.299739999999999895e+01 -1.198199999999999960e-01 -6.369999999999999794e-03 4.690120000000000289e+00 1.982029999999999959e+00 1.364109999999999934e+00 1.015399999999999991e+01 4.340150000000000396e+00 1.362679999999999891e+00 7.023259999999999614e+00 4.467240000000000322e+00 1.380039999999999933e+00 2.342900000000000205e+00 1.949719999999999898e+00 -3.042999999999999872e-02 1.249549999999999983e+01 2.204099999999999948e+00 -2.820000000000000024e-03 3.119289999999999896e+00 -3.468300000000000272e-01 1.354419999999999957e+00 1.170950000000000024e+01 -2.437699999999999867e-01 -2.370999999999999844e-02 9.366120000000000445e+00 2.101539999999999964e+00 1.365019999999999900e+00 5.465939999999999799e+00 2.219660000000000188e+00 1.385529999999999928e+00 7.810200000000000475e-01 2.005759999999999987e+00 2.750719999999999832e+00 7.810550000000000104e+00
2.089189999999999880e+00 1.245929999999999982e+00 1.013829999999999920e+01 2.143530000000000157e+00 -1.764300000000000035e-01 1.247119999999999962e+01 -3.950000000000000386e-03 1.281009999999999982e+00 2.374610000000000110e+00 -1.303600000000000037e-01 1.210259999999999891e+00 1.175660000000000061e+01 -1.332999999999999984e-02 2.607959999999999834e+00 4.724639999999999951e+00 2.254140000000000033e+00 1.334829999999999961e+00 7.669899999999999496e-01 2.240310000000000024e+00 2.576109999999999900e+00 7.809059999999999668e+00 -2.630299999999999860e-01 -2.812799999999999745e-01 2.097550000000000026e+01 2.191329999999999778e+00 1.263490000000000002e+00 5.453409999999999869e+00 4.390390000000000015e+00 2.502120000000000122e+00 9.370699999999999363e+00 4.408859999999999779e+00 1.189570000000000016e+00 6.985520000000000174e+00 2.217719999999999914e+00 -1.763999999999999943e-02 3.098800000000000221e+00
3.875119999999999898e+00 2.708099999999999952e+00 2.299739999999999895e+01 -1.198199999999999960e-01 -6.369999999999999794e-03 4.690120000000000289e+00 1.982029999999999959e+00 1.364109999999999934e+00 1.015399999999999991e+01 4.340150000000000396e+00 1.362679999999999891e+00 7.023259999999999614e+00 4.467240000000000322e+00 1.380039999999999933e+00 2.342900000000000205e+00 1.949719999999999898e+00 -3.042999999999999872e-02 1.249549999999999983e+01 2.204099999999999948e+00 -2.820000000000000024e-03 3.119289999999999896e+00 -3.468300000000000272e-01 1.354419999999999957e+00 1.170950000000000024e+01 -2.437699999999999867e-01 -2.370999999999999844e-02 9.366120000000000445e+00 2.101539999999999964e+00 1.365019999999999900e+00 5.465939999999999799e+00 2.219660000000000188e+00 1.385529999999999928e+00 7.810200000000000475e-01 2.005759999999999987e+00 2.750719999999999832e+00 7.810550000000000104e+00
-1.138799999999999951e-01 1.621070000000000011e+00 8.768919999999999604e+00 3.176870000000000083e+00 9.983400000000000052e-01 1.795200000000000129e-01 1.513719999999999954e+00 9.104700000000000015e-01 2.313309999999999977e+00 2.057160000000000100e+00 3.319300000000000028e-01 9.569300000000000139e+00 1.788899999999999935e+00 1.266699999999999937e+00 7.234149999999999636e+00 1.849099999999999910e-01 2.550129999999999786e+00 1.119260000000000055e+01 3.611819999999999808e+00 2.211009999999999920e+00 2.201060000000000016e+00 3.475900000000000212e+00 1.122759999999999980e+00 4.514700000000000379e+00 1.393699999999999939e+00 2.389889999999999848e+00 4.595930000000000071e+00 2.290029999999999788e+00 1.450550000000000006e+00 1.182150000000000034e+01 3.889359999999999928e+00 2.369299999999999962e+00 6.520599999999999952e+00 7.701900000000000412e-01 2.336139999999999883e+00 1.170800000000000035e-01
2.172460000000000058e+00 -2.587700000000000000e-01 1.230390000000000050e+01 2.135810000000000208e+00 -1.492999999999999883e-01 7.813950000000000173e+00 4.397560000000000358e+00 1.277050000000000018e+00 7.015839999999999854e+00 2.223079999999999945e+00 1.364659999999999984e+00 7.453499999999999570e-01 2.203920000000000101e+00 2.689490000000000158e+00 3.163130000000000219e+00 -5.239999999999999866e-03 1.358440000000000092e+00 2.315189999999999859e+00 2.158850000000000158e+00 1.299169999999999936e+00 5.373039999999999594e+00 4.375270000000000437e+00 -1.884899999999999909e-01 9.322200000000000486e+00 4.526980000000000004e+00 3.346999999999999975e-02 1.056999999999999953e-02 4.340790000000000148e+00 1.153720000000000079e+00 1.159270000000000067e+01 2.071540000000000159e+00 1.128190000000000026e+00 1.002079999999999949e+01 4.384400000000000297e+00 2.662910000000000110e+00 4.617609999999999992e+00
2.163419999999999899e+00 2.872840000000000060e+00 7.715959999999999930e+00 2.197529999999999983e+00 1.601630000000000109e+00 5.385360000000000369e+00 4.500339999999999563e+00 1.549899999999999889e-01 4.614969999999999573e+00 4.271080000000000432e+00 3.130279999999999951e+00 1.975400000000000134e+01 2.274570000000000203e+00 2.786970000000000169e+00 3.166440000000000143e+00 4.412530000000000285e+00 1.516599999999999948e+00 6.979759999999999742e+00 -6.969999999999999633e-03 1.475070000000000103e+00 2.341359999999999886e+00 -1.070500000000000063e-01 1.648030000000000106e+00 1.147930000000000028e+01 2.119060000000000166e+00 3.017809999999999881e+00 1.230039999999999978e+01 4.482829999999999870e+00 2.800900000000000056e-01 9.184649999999999537e+00 2.176839999999999886e+00 1.301500000000000101e+00 7.548399999999999554e-01 2.153610000000000024e+00 1.578040000000000109e+00 1.006859999999999999e+01
2.008490000000000109e+00 -1.264000000000000123e-01 1.221439999999999948e+01 2.189820000000000100e+00 2.525669999999999860e+00 7.783529999999999838e+00 4.270240000000000258e+00 1.262669999999999959e+00 6.978650000000000020e+00 2.280539999999999790e+00 1.348230000000000040e+00 6.988999999999999657e-01 2.227850000000000108e+00 8.529999999999999388e-03 3.235500000000000043e+00 8.540999999999999981e-02 1.315669999999999895e+00 2.491699999999999804e+00 2.006990000000000052e+00 1.450730000000000075e+00 5.351280000000000037e+00 4.263499999999999623e+00 2.390480000000000160e+00 9.261400000000000077e+00 -2.833499999999999908e-01 2.250300000000000189e+00 1.982659999999999911e+01 -1.836399999999999977e-01 1.221379999999999910e+00 1.158820000000000050e+01 2.152179999999999982e+00 1.137659999999999894e+00 1.004560000000000031e+01 -1.649000000000000118e-02 -5.074000000000000038e-02 4.658610000000000362e+00
-7.747999999999999332e-02 1.049330000000000096e+00 1.152929999999999922e+01 -2.566999999999999837e-02 -1.266500000000000126e-01 4.609239999999999782e+00 2.196600000000000108e+00 2.396959999999999980e+00 1.230100000000000016e+01 -1.767000000000000168e-02 1.308140000000000081e+00 2.312679999999999847e+00 2.218319999999999848e+00 2.523750000000000160e+00 7.685489999999999711e+00 4.479800000000000004e+00 2.482219999999999871e+00 9.220850000000000435e+00 2.264029999999999987e+00 1.347159999999999913e+00 7.752200000000000202e-01 4.403299999999999770e+00 2.134980000000000100e+00 2.166270000000000095e+01 4.502209999999999823e+00 1.173599999999999977e+00 6.916529999999999845e+00 2.208309999999999995e+00 1.092070000000000096e+00 9.994849999999999568e+00 2.258879999999999999e+00 -8.405999999999999583e-02 3.076610000000000067e+00 2.235599999999999810e+00 1.222769999999999913e+00 5.385069999999999801e+00
2.109710000000000196e+00 -2.494599999999999873e-01 1.225249999999999950e+01 2.114970000000000017e+00 2.584140000000000104e+00 7.788140000000000285e+00 4.384470000000000312e+00 1.213039999999999896e+00 6.930069999999999730e+00 2.271049999999999791e+00 1.392419999999999991e+00 8.581999999999999629e-01 2.250980000000000203e+00 -4.859999999999999737e-02 3.098879999999999857e+00 4.462819999999999787e+00 1.323450000000000015e+00 2.311529999999999863e+00 2.204649999999999999e+00 1.312500000000000000e+00 5.428860000000000241e+00 4.369720000000000049e+00 -1.536200000000000065e-01 9.254749999999999588e+00 -3.255999999999999867e-02 2.756069999999999798e+00 9.686999999999999778e-02 4.321519999999999584e+00 1.180020000000000069e+00 1.155199999999999960e+01 2.071989999999999998e+00 1.170690000000000008e+00 1.008990000000000009e+01 4.383350000000000080e+00 2.678879999999999928e+00 4.632489999999999775e+00
2.216689999999999827e+00 2.901829999999999909e+00 7.831830000000000069e+00 2.320920000000000094e+00 1.439270000000000049e+00 5.500880000000000436e+00 4.495000000000000107e+00 1.593700000000000117e-01 4.647890000000000299e+00 4.468149999999999622e+00 1.426999999999999970e-02 4.857000000000000206e-02 2.259659999999999780e+00 1.830199999999999882e-01 3.085010000000000030e+00 1.549999999999999989e-02 1.480720000000000036e+00 6.850929999999999964e+00 4.510489999999999888e+00 1.324210000000000109e+00 2.186150000000000038e+00 4.313729999999999620e+00 1.637499999999999956e+00 1.159529999999999994e+01 2.277769999999999850e+00 4.047299999999999787e-01 1.234309999999999974e+01 4.365409999999999791e+00 2.910750000000000171e+00 9.166499999999999204e+00 2.331479999999999997e+00 1.310799999999999965e+00 7.264399999999999746e-01 2.020869999999999944e+00 1.661510000000000042e+00 1.000539999999999985e+01
4.453459999999999752e+00 2.682690000000000019e+00 4.116999999999999826e-02 -1.010800000000000032e-01 9.130000000000000615e-02 4.763390000000000235e+00 1.913340000000000041e+00 1.250320000000000098e+00 1.012959999999999994e+01 4.314000000000000057e+00 1.461840000000000028e+00 7.097349999999999604e+00 4.431400000000000006e+00 1.445130000000000026e+00 2.388770000000000060e+00 1.803050000000000042e+00 -1.565000000000000072e-02 1.237599999999999945e+01 2.269940000000000069e+00 2.289999999999999935e-03 3.041790000000000216e+00 -2.565799999999999748e-01 1.429400000000000004e+00 1.173339999999999961e+01 4.113959999999999617e+00 2.730239999999999778e+00 9.261889999999999290e+00 2.197979999999999823e+00 1.227859999999999951e+00 5.480920000000000236e+00 2.310000000000000053e+00 1.494080000000000075e+00 9.114299999999999624e-01 2.099359999999999893e+00 2.641680000000000028e+00 7.730310000000000237e+00
4.379819999999999602e+00 2.720439999999999969e+00 1.174700000000000050e-01 4.296050000000000146e+00 2.756390000000000118e+00 4.659270000000000245e+00 2.011249999999999982e+00 1.403610000000000024e+00 1.024469999999999992e+01 -1.597200000000000009e-01 1.462269999999999959e+00 6.893600000000000172e+00 4.446519999999999584e+00 1.436309999999999976e+00 2.370870000000000033e+00 1.918819999999999970e+00 8.706999999999999462e-02 1.225530000000000008e+01 2.104769999999999808e+00 2.685160000000000213e+00 3.207570000000000032e+00 -3.003100000000000214e-01 1.361539999999999973e+00 1.167830000000000013e+01 -2.172999999999999932e-01 -6.599999999999999964e-04 9.284589999999999677e+00 2.144499999999999851e+00 1.242979999999999974e+00 5.579970000000000319e+00 2.240870000000000140e+00 1.328349999999999920e+00 8.340800000000000436e-01 2.050139999999999851e+00 2.729649999999999910e+00 7.830390000000000406e+00
4.441849999999999632e+00 2.651199999999999779e+00 1.500700000000000089e-01 -8.719999999999999973e-02 1.274899999999999922e-01 4.792229999999999990e+00 1.880970000000000031e+00 1.202069999999999972e+00 1.011110000000000042e+01 4.318080000000000140e+00 1.495100000000000096e+00 7.113030000000000186e+00 4.432479999999999976e+00 1.472320000000000073e+00 2.412440000000000140e+00 1.757090000000000041e+00 -4.100000000000000346e-03 1.224670000000000059e+01 2.291500000000000092e+00 1.123000000000000040e-02 3.036399999999999988e+00 -2.417100000000000082e-01 1.456380000000000008e+00 1.169640000000000057e+01 4.060979999999999812e+00 2.727050000000000196e+00 9.246290000000000120e+00 2.237530000000000019e+00 1.174500000000000099e+00 5.477509999999999657e+00 2.337590000000000057e+00 1.532720000000000082e+00 9.767500000000000071e-01 2.119689999999999852e+00 2.595250000000000057e+00 7.697210000000000107e+00
2.033679999999999932e+00 2.522949999999999804e+00 1.238429999999999964e+01 2.166970000000000063e+00 -1.601499999999999868e-01 7.748350000000000293e+00 -1.311900000000000011e-01 1.244159999999999933e+00 6.965679999999999872e+00 2.225800000000000001e+00 1.377539999999999987e+00 7.783499999999999863e-01 2.237600000000000033e+00 -6.187000000000000138e-02 3.093710000000000182e+00 -6.754999999999999893e-02 1.344799999999999995e+00 2.320699999999999985e+00 2.160460000000000047e+00 1.284089999999999954e+00 5.412279999999999980e+00 4.342730000000000423e+00 2.584579999999999878e+00 9.283979999999999677e+00 -2.736100000000000199e-01 -4.232899999999999996e-01 1.983719999999999928e+01 -1.945099999999999885e-01 1.147289999999999921e+00 1.160219999999999985e+01 2.094510000000000094e+00 1.181769999999999987e+00 1.006209999999999916e+01 4.479429999999999801e+00 -9.668000000000000205e-02 4.645419999999999661e+00
2.206539999999999946e+00 1.844200000000000006e-01 7.712920000000000442e+00 2.202980000000000160e+00 1.494129999999999958e+00 5.395030000000000214e+00 -1.133200000000000041e-01 2.839760000000000062e+00 4.623240000000000016e+00 4.363749999999999574e+00 4.796699999999999853e-01 1.975300000000000011e+01 2.262630000000000141e+00 7.563000000000000278e-02 3.082209999999999894e+00 -1.130199999999999955e-01 1.529900000000000038e+00 6.938290000000000290e+00 4.538540000000000241e+00 1.420709999999999917e+00 2.307529999999999859e+00 4.422950000000000159e+00 1.641399999999999970e+00 1.156419999999999959e+01 2.152709999999999901e+00 2.954800000000000204e-01 1.233150000000000013e+01 -1.077400000000000024e-01 2.223100000000000076e-01 9.248680000000000234e+00 2.264040000000000052e+00 1.379199999999999982e+00 7.672900000000000276e-01 2.148989999999999956e+00 1.605210000000000026e+00 1.002180000000000071e+01
2.108179999999999943e+00 -2.588099999999999845e-01 1.234440000000000026e+01 2.106679999999999886e+00 2.605469999999999953e+00 7.770859999999999879e+00 4.397529999999999717e+00 1.228069999999999995e+00 6.945750000000000313e+00 2.249810000000000088e+00 1.385709999999999997e+00 8.110000000000000542e-01 2.245870000000000033e+00 -5.528999999999999887e-02 3.095810000000000173e+00 4.468560000000000088e+00 1.333869999999999889e+00 2.316510000000000069e+00 2.185049999999999937e+00 1.299029999999999907e+00 5.421210000000000306e+00 4.390900000000000247e+00 -1.775200000000000111e-01 9.268019999999999925e+00 -5.163000000000000228e-02 2.774000000000000021e+00 1.936999999999999833e-02 4.335469999999999935e+00 1.163589999999999902e+00 1.158610000000000007e+01 2.083390000000000075e+00 1.175640000000000018e+00 1.007629999999999981e+01 4.392839999999999634e+00 2.685750000000000082e+00 4.638810000000000322e+00
2.201169999999999849e+00 1.965399999999999925e-01 7.703450000000000131e+00 2.206139999999999990e+00 1.467740000000000045e+00 5.396510000000000140e+00 4.472489999999999633e+00 2.831430000000000113e+00 4.630020000000000024e+00 2.692999999999999908e-02 2.942000000000000171e-02 7.470000000000000077e-03 2.250090000000000146e+00 9.382999999999999674e-02 3.065659999999999830e+00 -8.530000000000000082e-02 1.519190000000000040e+00 6.949060000000000237e+00 4.515329999999999622e+00 1.419810000000000016e+00 2.333320000000000061e+00 4.405719999999999636e+00 1.626100000000000101e+00 1.153899999999999970e+01 2.149430000000000174e+00 3.045999999999999819e-01 1.231780000000000008e+01 4.413619999999999877e+00 2.946029999999999927e+00 9.239000000000000767e+00 2.272909999999999986e+00 1.371289999999999898e+00 7.874100000000000543e-01 2.169059999999999988e+00 1.622009999999999952e+00 1.001919999999999966e+01
2.055820000000000203e+00 -1.955500000000000016e-01 1.232579999999999920e+01 2.148740000000000094e+00 2.574870000000000214e+00 7.768819999999999837e+00 4.338359999999999772e+00 1.255870000000000042e+00 6.974090000000000344e+00 2.252769999999999939e+00 1.363259999999999916e+00 7.255599999999999827e-01 2.229410000000000114e+00 -2.672000000000000069e-02 3.172709999999999919e+00 1.201999999999999943e-02 1.329970000000000097e+00 2.414449999999999985e+00 2.079499999999999904e+00 1.369429999999999925e+00 5.375399999999999956e+00 4.297780000000000378e+00 2.482819999999999805e+00 9.269439999999999458e+00 -3.146200000000000108e-01 2.307789999999999786e+00 1.980079999999999885e+01 -1.883700000000000097e-01 1.185449999999999893e+00 1.160580000000000034e+01 2.126720000000000166e+00 1.160109999999999975e+00 1.005230000000000068e+01 -3.658000000000000140e-02 -7.310999999999999444e-02 4.649140000000000050e+00
2.213699999999999779e+00 1.997700000000000031e-01 7.759990000000000165e+00 2.194640000000000146e+00 1.484450000000000047e+00 5.369620000000000282e+00 -4.911999999999999700e-02 1.185299999999999965e-01 4.572320000000000384e+00 4.581109999999999793e+00 4.354000000000000231e-02 2.546999999999999958e-02 2.337019999999999875e+00 1.313400000000000123e-01 3.132859999999999978e+00 4.459710000000000285e+00 1.555150000000000032e+00 6.884960000000000413e+00 -1.926999999999999894e-02 1.449419999999999931e+00 2.271939999999999849e+00 4.385449999999999626e+00 1.580889999999999906e+00 1.155979999999999919e+01 2.092379999999999907e+00 2.950730000000000075e+00 1.231879999999999953e+01 -1.065299999999999997e-01 2.547300000000000120e-01 9.301370000000000360e+00 2.250890000000000057e+00 1.343290000000000095e+00 7.462900000000000089e-01 2.122630000000000017e+00 1.584130000000000038e+00 1.004460000000000086e+01