2.486081641999999814e+00 0.000000000000000000e+00 0.000000000000000000e+00 -1.213814690000000057e-01 4.381129664999999562e+00 0.000000000000000000e+00 6.620499700000000154e-02 -4.783461600000000341e-02 2.151068620799999920e+01
2.604206344000000062e+00 0.000000000000000000e+00 0.000000000000000000e+00 7.933620299999999403e-02 4.389202705999999843e+00 0.000000000000000000e+00 -1.327851359999999981e-01 1.648700359999999976e-01 1.606417177100000160e+01
2.463353703000000117e+00 0.000000000000000000e+00 0.000000000000000000e+00 1.513451799999999958e-02 4.278428056000000090e+00 0.000000000000000000e+00 -6.092373999999999706e-02 3.257827739999999972e-01 1.686870868200000118e+01
2.729620361999999911e+00 0.000000000000000000e+00 0.000000000000000000e+00 -2.452266000000000168e-02 4.780044726999999938e+00 0.000000000000000000e+00 1.226068990000000053e-01 -2.972193570000000173e-01 2.069879330199999856e+01
2.524519698000000201e+00 0.000000000000000000e+00 0.000000000000000000e+00 4.194239500000000037e-02 4.495577425999999654e+00 0.000000000000000000e+00 4.276391589999999909e-01 5.521395899999999995e-02 1.451793256200000037e+01
2.648599013000000113e+00 0.000000000000000000e+00 0.000000000000000000e+00 1.244163419999999992e-01 4.609003025999999892e+00 0.000000000000000000e+00 -3.286735619999999747e-01 -6.460111999999999799e-02 1.736447489600000083e+01
2.581255918000000094e+00 0.000000000000000000e+00 0.000000000000000000e+00 -1.291706000000000104e-03 4.588461474999999901e+00 0.000000000000000000e+00 7.344601900000000128e-02 -6.492053000000000407e-02 2.099491209299999994e+01
2.557726112000000107e+00 0.000000000000000000e+00 0.000000000000000000e+00 4.947208599999999845e-02 4.324559083999999665e+00 0.000000000000000000e+00 -2.933135539999999764e-01 -2.744360379999999933e-01 2.180748040199999949e+01
2.437575412000000163e+00 0.000000000000000000e+00 0.000000000000000000e+00 8.727263000000000728e-03 4.274555431999999655e+00 0.000000000000000000e+00 -8.387171499999999946e-02 -1.050288330000000020e-01 1.970654276999999865e+01
2.422998849999999926e+00 0.000000000000000000e+00 0.000000000000000000e+00 1.219111120000000020e-01 4.170953049999999607e+00 0.000000000000000000e+00 -6.896743800000000590e-02 -9.772052200000000410e-02 1.449647698699999943e+01
2.625132439000000151e+00 0.000000000000000000e+00 0.000000000000000000e+00 -5.775031600000000293e-02 4.403312115000000304e+00 0.000000000000000000e+00 3.611395680000000219e-01 3.749059579999999836e-01 1.907321755999999979e+01
2.421781129999999838e+00 0.000000000000000000e+00 0.000000000000000000e+00 -8.664611899999999367e-02 4.148060216000000189e+00 0.000000000000000000e+00 -2.565447450000000185e-01 -5.288236200000000220e-02 1.878759205000000065e+01
2.553122012999999857e+00 0.000000000000000000e+00 0.000000000000000000e+00 -2.968322300000000163e-02 4.240479718999999648e+00 0.000000000000000000e+00 -5.089441670000000029e-01 -5.744318790000000341e-01 2.157678674499999971e+01
2.505039329999999786e+00 0.000000000000000000e+00 0.000000000000000000e+00 1.058133150000000050e-01 4.360296632999999922e+00 0.000000000000000000e+00 2.477287559999999944e-01 3.546237999999999890e-01 1.362707231000000085e+01
2.597187283999999874e+00 0.000000000000000000e+00 0.000000000000000000e+00 -7.017521999999999996e-03 4.575985188999999842e+00 0.000000000000000000e+00 2.207798209999999872e-01 7.156630399999999725e-02 2.221856739100000055e+01
2.581255918000000094e+00 0.000000000000000000e+00 0.000000000000000000e+00 -1.291706000000000104e-03 4.588461474999999901e+00 0.000000000000000000e+00 7.344601900000000128e-02 -6.492053000000000407e-02 2.099491209299999994e+01
2.388259010000000071e+00 0.000000000000000000e+00 0.000000000000000000e+00 8.110754000000000574e-02 4.143773833000000018e+00 0.000000000000000000e+00 3.521860880000000082e-01 3.577429320000000135e-01 1.303329456600000036e+01
2.516098737000000085e+00 0.000000000000000000e+00 0.000000000000000000e+00 -9.358213099999999895e-02 4.316702162000000342e+00 0.000000000000000000e+00 -2.068417909999999971e-01 -9.066480899999999898e-02 1.231490496099999987e+01
2.785846668000000026e+00 0.000000000000000000e+00 0.000000000000000000e+00 3.949739999999999761e-04 4.634170733999999570e+00 0.000000000000000000e+00 -1.078608360000000016e-01 5.945308019999999694e-01 2.016846230999999889e+01
2.652675236999999964e+00 0.000000000000000000e+00 0.000000000000000000e+00 1.663150999999999866e-02 4.627277660999999931e+00 0.000000000000000000e+00 -1.566583980000000043e-01 2.747488799999999731e-01 2.109699299700000097e+01
2.623115536999999886e+00 0.000000000000000000e+00 0.000000000000000000e+00 -6.310224000000000388e-02 4.488742799999999811e+00 0.000000000000000000e+00 -1.814475819999999961e-01 6.578383399999999936e-02 1.825494258699999861e+01
2.437575412000000163e+00 0.000000000000000000e+00 0.000000000000000000e+00 8.727263000000000728e-03 4.274555431999999655e+00 0.000000000000000000e+00 -8.387171499999999946e-02 -1.050288330000000020e-01 1.970654276999999865e+01
2.485680170000000189e+00 0.000000000000000000e+00 0.000000000000000000e+00 -1.247848710000000055e-01 4.306098350000000075e+00 0.000000000000000000e+00 -3.001127989999999857e-01 -1.200630790000000031e-01 1.839926551099999941e+01
2.501415005000000136e+00 0.000000000000000000e+00 0.000000000000000000e+00 -1.036400219999999983e-01 4.396743059000000287e+00 0.000000000000000000e+00 -2.354528879999999991e-01 -5.234364999999999851e-02 1.576648705200000045e+01
2.444908202999999780e+00 0.000000000000000000e+00 0.000000000000000000e+00 -4.385029299999999852e-02 4.452004149000000410e+00 0.000000000000000000e+00 3.269524589999999731e-01 -2.355414600000000080e-01 1.424667889999999915e+01
2.509063278999999813e+00 0.000000000000000000e+00 0.000000000000000000e+00 -1.206726290000000035e-01 4.383895779000000381e+00 0.000000000000000000e+00 -8.063223899999999444e-02 4.283952540000000031e-01 2.108156624900000153e+01
2.495488536999999951e+00 0.000000000000000000e+00 0.000000000000000000e+00 1.896974499999999966e-02 4.547524891000000125e+00 0.000000000000000000e+00 -4.054484170000000054e-01 6.878291699999999897e-02 1.922451700099999883e+01
2.577846055999999830e+00 0.000000000000000000e+00 0.000000000000000000e+00 4.732043699999999992e-02 4.337546054999999789e+00 0.000000000000000000e+00 1.597409280000000042e-01 1.566507580000000011e-01 1.742775276300000087e+01
2.433291319999999924e+00 0.000000000000000000e+00 0.000000000000000000e+00 -1.025994590000000040e-01 4.310570853999999841e+00 0.000000000000000000e+00 -2.990086929999999921e-01 -4.209395500000000234e-02 1.291822846400000024e+01
2.509063278999999813e+00 0.000000000000000000e+00 0.000000000000000000e+00 -1.206726290000000035e-01 4.383895779000000381e+00 0.000000000000000000e+00 -8.063223899999999444e-02 4.283952540000000031e-01 2.108156624900000153e+01
2.509063278999999813e+00 0.000000000000000000e+00 0.000000000000000000e+00 -1.206726290000000035e-01 4.383895779000000381e+00 0.000000000000000000e+00 -8.063223899999999444e-02 4.283952540000000031e-01 2.108156624900000153e+01
2.644439490999999975e+00 0.000000000000000000e+00 0.000000000000000000e+00 -4.451352000000000433e-03 4.572885879000000209e+00 0.000000000000000000e+00 2.113243720000000103e-01 1.959367439999999960e-01 1.749682768199999927e+01
2.714854526999999962e+00 0.000000000000000000e+00 0.000000000000000000e+00 1.079063499999999981e-02 4.695977920999999888e+00 0.000000000000000000e+00 3.537925419999999876e-01 -3.245137819999999729e-01 1.592136002400000017e+01
2.652359048000000108e+00 0.000000000000000000e+00 0.000000000000000000e+00 -5.070547100000000196e-02 4.620781831999999589e+00 0.000000000000000000e+00 5.083630569999999516e-01 4.479357640000000140e-01 1.767201294799999900e+01
2.714854526999999962e+00 0.000000000000000000e+00 0.000000000000000000e+00 1.079063499999999981e-02 4.695977920999999888e+00 0.000000000000000000e+00 3.537925419999999876e-01 -3.245137819999999729e-01 1.592136002400000017e+01
2.437575412000000163e+00 0.000000000000000000e+00 0.000000000000000000e+00 8.727263000000000728e-03 4.274555431999999655e+00 0.000000000000000000e+00 -8.387171499999999946e-02 -1.050288330000000020e-01 1.970654276999999865e+01
2.611740376999999835e+00 0.000000000000000000e+00 0.000000000000000000e+00 1.299767139999999932e-01 4.395825932000000158e+00 0.000000000000000000e+00 -3.988466740000000121e-01 -1.304438390000000059e-01 1.902841487899999962e+01
2.552793695000000085e+00 0.000000000000000000e+00 0.000000000000000000e+00 8.915975700000000614e-02 4.446173558999999997e+00 0.000000000000000000e+00 2.739569559999999737e-01 2.768658310000000067e-01 2.090708634099999941e+01
2.421781129999999838e+00 0.000000000000000000e+00 0.000000000000000000e+00 -8.664611899999999367e-02 4.148060216000000189e+00 0.000000000000000000e+00 -2.565447450000000185e-01 -5.288236200000000220e-02 1.878759205000000065e+01
2.519559147999999915e+00 0.000000000000000000e+00 0.000000000000000000e+00 -4.233190800000000142e-02 4.243881977000000028e+00 0.000000000000000000e+00 1.422786510000000060e-01 -2.625089400000000239e-01 1.329154927899999983e+01
2.588196711999999788e+00 0.000000000000000000e+00 0.000000000000000000e+00 4.852976199999999712e-02 4.681232011999999720e+00 0.000000000000000000e+00 -3.317650309999999880e-01 -4.859664799999999923e-02 1.902270594599999853e+01
2.388259010000000071e+00 0.000000000000000000e+00 0.000000000000000000e+00 8.110754000000000574e-02 4.143773833000000018e+00 0.000000000000000000e+00 3.521860880000000082e-01 3.577429320000000135e-01 1.303329456600000036e+01
2.581255918000000094e+00 0.000000000000000000e+00 0.000000000000000000e+00 -1.291706000000000104e-03 4.588461474999999901e+00 0.000000000000000000e+00 7.344601900000000128e-02 -6.492053000000000407e-02 2.099491209299999994e+01
2.581255918000000094e+00 0.000000000000000000e+00 0.000000000000000000e+00 -1.291706000000000104e-03 4.588461474999999901e+00 0.000000000000000000e+00 7.344601900000000128e-02 -6.492053000000000407e-02 2.099491209299999994e+01
2.483540437999999906e+00 0.000000000000000000e+00 0.000000000000000000e+00 9.083636200000000382e-02 4.438261100000000070e+00 0.000000000000000000e+00 -4.428225809999999929e-01 -2.188648209999999872e-01 1.777533947899999944e+01
2.606476185000000001e+00 0.000000000000000000e+00 0.000000000000000000e+00 4.017501700000000037e-02 4.576795330000000384e+00 0.000000000000000000e+00 -1.965419499999999930e-02 3.777709000000000188e-03 1.668991239600000043e+01
