-3.910087603000000200e+01
-3.937396303999999958e+01
-3.940565336000000229e+01
-3.742366873999999655e+01
-3.901104665999999810e+01
-3.831134898999999905e+01
-3.812100869999999730e+01
-3.719367994000000266e+01
-3.756120042999999953e+01
-3.938338790000000245e+01
-3.830481395999999705e+01
-4.006369499000000189e+01
-3.752350659999999749e+01
-4.005814714000000265e+01
-3.883084056999999945e+01
-3.744664124999999899e+01
-3.961137647999999700e+01
-4.025605253999999888e+01
-3.783944169000000102e+01
-3.465681200000000217e+01
-3.832706275999999690e+01
-3.755944379999999683e+01
-3.919541106999999869e+01
-3.916543319000000167e+01
-4.026221920999999782e+01
-3.813554065000000293e+01
-3.990228534999999965e+01
-4.042304332999999872e+01
-4.033025693999999817e+01
-3.867666928999999953e+01
-3.912140748000000201e+01
-3.810175822000000068e+01
-3.629156973999999991e+01
-3.875533728999999994e+01
-3.750529287999999895e+01
-3.760144994000000196e+01
-3.948066243000000242e+01
-3.902551082000000093e+01
-3.909821084000000013e+01
-4.045603904000000028e+01
-3.795223209000000253e+01
-4.021558277999999831e+01
-3.794334179999999890e+01
-3.804145675000000182e+01
-3.911305860000000223e+01
-3.708604720999999671e+01
