7.335132729999999768e+00 0.000000000000000000e+00 0.000000000000000000e+00 -5.302156999999999704e-02 7.325289758000000262e+00 0.000000000000000000e+00 -2.264462640000000082e-01 -4.190641999999999978e-02 7.474155225999999708e+00
7.208313415000000113e+00 0.000000000000000000e+00 0.000000000000000000e+00 2.169930409999999976e-01 7.445101103999999914e+00 0.000000000000000000e+00 -2.049827170000000087e-01 3.704998699999999950e-02 7.552553677999999771e+00
7.354395887999999992e+00 0.000000000000000000e+00 0.000000000000000000e+00 6.133623000000000373e-03 7.507622794999999627e+00 0.000000000000000000e+00 1.624701500000000007e-02 -1.762276520000000124e-01 7.397806376000000128e+00
7.379298942000000139e+00 0.000000000000000000e+00 0.000000000000000000e+00 9.506698199999999432e-02 7.768179421000000140e+00 0.000000000000000000e+00 -1.342787910000000084e-01 -1.633793789999999913e-01 7.419614786000000350e+00
7.468338167999999833e+00 0.000000000000000000e+00 0.000000000000000000e+00 2.176993720000000021e-01 7.386725206000000377e+00 0.000000000000000000e+00 -8.843887200000000171e-02 1.935311030000000099e-01 7.357256019000000258e+00
7.183821899999999872e+00 0.000000000000000000e+00 0.000000000000000000e+00 -1.541545139999999925e-01 7.468742510000000223e+00 0.000000000000000000e+00 1.180152680000000065e-01 -1.623015560000000135e-01 7.404482984000000378e+00
7.548841269000000409e+00 0.000000000000000000e+00 0.000000000000000000e+00 2.200460079999999874e-01 7.466348581000000095e+00 0.000000000000000000e+00 -8.939217700000000322e-02 1.956172230000000067e-01 7.436561737999999977e+00
7.292039121000000179e+00 0.000000000000000000e+00 0.000000000000000000e+00 2.195134499999999989e-01 7.531577137000000199e+00 0.000000000000000000e+00 -2.073636239999999964e-01 3.748032899999999973e-02 7.640277789999999847e+00
7.314101027999999616e+00 0.000000000000000000e+00 0.000000000000000000e+00 9.422704199999999697e-02 7.699545653000000378e+00 0.000000000000000000e+00 -1.330924049999999970e-01 -1.619358820000000032e-01 7.354060671000000049e+00
