5.544399313999999634e+00 0.000000000000000000e+00 0.000000000000000000e+00 2.654830565999999781e+00 4.773253342000000288e+00 0.000000000000000000e+00 -1.882345109999999933e-01 1.094057209999999974e-01 8.877892197999999624e+00
5.168346028000000203e+00 0.000000000000000000e+00 0.000000000000000000e+00 2.455037957000000048e+00 4.535360662999999626e+00 0.000000000000000000e+00 1.257536529999999930e-01 1.668457520000000138e-01 8.544755188999999973e+00
6.219612965999999687e+00 0.000000000000000000e+00 0.000000000000000000e+00 3.189781135000000045e+00 5.495564799000000278e+00 0.000000000000000000e+00 1.743515499999999940e-01 -2.020754740000000049e-01 1.000531687700000028e+01
5.138799772999999682e+00 0.000000000000000000e+00 0.000000000000000000e+00 2.577001085000000025e+00 4.592260661000000077e+00 0.000000000000000000e+00 2.056721310000000080e-01 2.030786629999999926e-01 8.478252238999999690e+00
5.309763872999999634e+00 0.000000000000000000e+00 0.000000000000000000e+00 2.688923185000000160e+00 4.422691093000000073e+00 0.000000000000000000e+00 -1.639694469999999904e-01 2.130491860000000015e-01 8.707759062999999244e+00
5.019943244000000249e+00 0.000000000000000000e+00 0.000000000000000000e+00 2.453463864000000161e+00 4.535926659000000249e+00 0.000000000000000000e+00 -1.979949279999999867e-01 1.458801100000000073e-01 8.558657956999999428e+00
5.825134850999999614e+00 0.000000000000000000e+00 0.000000000000000000e+00 2.987469695999999786e+00 5.147009341000000404e+00 0.000000000000000000e+00 1.632933269999999881e-01 -1.892588639999999989e-01 9.370731000999999338e+00
5.388953080000000284e+00 0.000000000000000000e+00 0.000000000000000000e+00 2.821107932999999957e+00 4.492446890000000081e+00 0.000000000000000000e+00 1.284420619999999957e-01 2.034875250000000024e-01 8.525086469999999750e+00
5.233216344999999770e+00 0.000000000000000000e+00 0.000000000000000000e+00 2.485852282000000191e+00 4.592286085999999656e+00 0.000000000000000000e+00 1.273320460000000043e-01 1.689399099999999987e-01 8.652004389000000018e+00
5.030985940999999961e+00 0.000000000000000000e+00 0.000000000000000000e+00 2.389789959999999880e+00 4.414823544999999960e+00 0.000000000000000000e+00 1.224114750000000057e-01 1.624114610000000070e-01 8.317659650999999599e+00
