-2.125070000000000014e-01 -4.089700000000000280e-02 -7.615579999999999572e-01 1.480700000000000072e-01 -3.853050000000000086e-01 -3.044149999999999912e-01 -4.511072999999999666e+00 1.161813999999999902e+00 -8.165899999999999548e-02 -3.121240000000000125e-01 -1.119005999999999945e+00 -4.201309999999999767e-01 4.366949999999999998e-01 1.189475000000000060e+00 -1.043508000000000102e+00 3.802090000000000192e-01 8.170950000000000157e-01 1.737071000000000032e+00 -5.243560000000000443e-01 -5.947059999999999569e-01 5.565339999999999732e-01 -1.966829999999999967e-01 -4.910430000000000073e-01 2.284829000000000221e+00 3.979964999999999975e+00 -1.277411999999999992e+00 -8.401642000000000721e+00 9.224310000000000009e-01 -7.840909999999999824e-01 8.681609999999999605e-01 1.968155000000000099e+00 5.186939999999999884e-01 6.470650000000000013e-01 -3.694129999999999914e-01 -3.848148000000000124e+00 -1.073118000000000016e+00 2.079169999999999907e-01 6.524810999999999694e+00 6.598836999999999620e+00 1.714130000000000098e-01 1.019244000000000039e+00 -1.352370999999999990e+00 -2.045462999999999809e+00 -9.053149999999999809e-01 -8.173900000000000610e-02 -4.323500000000000260e-02 -1.785209999999999964e+00 8.276449999999999640e-01
6.360869999999999580e-01 6.628469999999999640e-01 -1.996987000000000068e+00 -6.031419999999999559e-01 1.509139999999999926e-01 -7.459519999999999484e-01 1.208269999999999955e+00 -3.955060000000000242e-01 1.474178999999999906e+00 9.493890000000000384e-01 -4.128279999999999728e-01 -1.434928999999999899e+00 -3.981450000000000267e-01 -7.296580000000000288e-01 -5.683009999999999451e-01 1.272302000000000044e+00 1.659279999999999922e-01 -1.064060000000000006e-01 -5.961870000000000225e-01 1.435279999999999889e-01 6.921599999999999975e-01 -1.033155999999999963e+00 -6.274290000000000145e-01 6.142900000000000027e-01 6.539045999999999914e+00 -3.048509000000000135e+00 -1.386683000000000110e+00 -2.257807000000000119e+00 -6.773050000000000459e-01 5.261409999999999698e-01 -3.865450000000000275e-01 -2.923591000000000051e+00 -1.548505999999999938e+00 -5.293440000000000367e-01 1.325206000000000106e+00 1.841164000000000023e+00 -7.050450000000000328e-01 1.115029000000000048e+00 6.246410000000000018e-01 4.532260000000000177e-01 -6.497770000000000490e-01 9.841940000000000133e-01 1.382599999999999940e-01 6.662139999999999729e-01 1.312095000000000011e+00 -4.687209000000000181e+00 5.234936000000000256e+00 -2.810989999999999878e-01
5.965999999999999776e-02 7.662999999999999673e-03 1.335689999999999933e-01 -3.681329999999999880e-01 -3.390279999999999960e-01 2.792839999999999767e-01 -5.229530000000000012e-01 2.733220000000000094e-01 5.376069999999999460e-01 1.494898999999999978e+00 -9.154299999999999937e-02 -2.187639999999999862e-01 -4.517579999999999929e-01 -4.578299999999999731e-02 1.808978999999999893e+00 4.709269999999999845e-01 6.046800000000000092e-02 -1.067169000000000034e+00 -3.332800000000000346e-02 2.118999999999999790e-03 1.040810999999999931e+00 -9.704139999999999988e-01 4.203013000000000332e+00 -1.188042999999999960e+00 6.484520000000000284e-01 -4.314631999999999579e+00 2.309199999999999864e-01 -3.450059999999999794e-01 -1.018860000000000099e+00 -2.939689999999999803e-01 -3.301680000000000170e-01 -2.734999999999999931e-02 2.419520000000000004e-01 2.874419999999999753e-01 1.676296000000000008e+00 3.314389999999999836e-01 -3.374630000000000130e-01 -7.100699999999999790e-01 -1.808649999999999980e-01 -2.875499999999999723e-01 -1.615119999999999889e-01 -2.748439999999999772e-01 5.262400000000000411e-01 2.981400000000000022e-02 -2.758619999999999961e-01 1.591539999999999899e-01 4.560830000000000162e-01 -1.105045000000000055e+00
3.813219999999999943e-01 2.483080000000000176e+00 2.825770000000000226e-01 -4.628999999999999782e-02 2.168809999999999905e-01 4.261860000000000093e-01 -1.036945999999999923e+00 6.235760000000000192e-01 -3.309299999999999742e-02 1.643177000000000110e+00 1.453672000000000075e+00 -4.321980000000000266e-01 -5.043009999999999993e-01 -9.392474999999999241e+00 4.900889999999999969e-01 3.972140000000000115e-01 2.048300000000000121e-01 7.990500000000000380e-02 2.152419999999999889e-01 -5.206070000000000420e-01 -3.053899999999999948e-01 3.494920000000000249e-01 5.149679999999999813e-01 -9.471880000000000299e-01 -3.504932999999999854e+00 5.385818000000000438e+00 1.979702000000000073e+00 -1.149154999999999927e+00 -2.327824000000000115e+00 -1.993880000000000097e-01 -1.067758999999999903e+00 -1.202150999999999970e+00 2.527249999999999774e-01 -1.061013999999999902e+00 -1.273107999999999906e+00 -2.132626999999999828e+00 -4.166400000000000103e-01 -1.342319999999999902e-01 -8.691740000000000022e-01 4.320134999999999614e+00 4.544500000000000206e+00 1.431851999999999903e+00 7.039210000000000189e-01 -1.871019999999999905e-01 1.006842000000000015e+00 7.765370000000000328e-01 -3.898269999999999791e-01 -1.030818999999999930e+00
-1.010572999999999944e+00 -5.539650000000000407e-01 -6.896910000000000540e-01 1.120030000000000081e+00 2.807689999999999908e-01 -4.086650000000000005e-01 7.641080000000000094e-01 -8.808270000000000266e-01 1.544369999999999910e-01 1.145216999999999929e+00 -1.276410000000000045e-01 -4.782611000000000168e+00 -2.344999999999999862e-03 3.199971000000000121e+00 2.754119999999999902e+00 -8.724214999999999165e+00 -2.186884000000000050e+00 1.644528999999999908e+00 4.759820000000000162e-01 -2.408780000000000088e-01 1.684185000000000043e+00 2.799159999999999981e-01 -4.227700000000000208e-02 9.066299999999999359e-02 -3.933760000000000034e-01 1.023261999999999894e+00 1.007570000000000077e+00 5.330700000000000022e-02 4.687199999999999700e-02 -3.114560000000000106e-01 9.322629999999999528e-01 5.717649999999999677e-01 -1.778520000000000101e-01 4.877529999999999921e-01 -3.975679999999999770e-01 9.192479999999999540e-01 -3.118609999999999993e-01 1.269899999999999918e-01 1.149170000000000053e-01 1.022216999999999931e+00 2.155169999999999864e-01 -2.659070999999999962e+00 -1.711893000000000109e+00 7.448860000000000481e-01 -6.449100000000000665e-02 5.873471000000000330e+00 -1.779992000000000019e+00 7.241680000000000339e-01
-1.295665000000000067e+00 8.921348999999999307e+00 3.161249999999999893e-01 1.980810000000000071e-01 1.474719999999999920e-01 -2.713050000000000184e-01 -8.393950000000000022e-01 4.387769999999999726e-01 -1.628420999999999896e+00 -6.179789999999999450e-01 2.240635999999999850e+00 3.720319999999999738e-01 1.228839000000000015e+00 -2.209747999999999823e+00 -1.013509999999999911e+00 -8.511260000000000492e-01 -3.297349000000000085e+00 2.246070000000000011e-01 -2.540120000000000156e-01 -8.014989999999999615e-01 4.577479999999999882e-01 -2.073000000000000190e-03 -1.510899999999999917e-02 1.816149999999999987e-01 1.661256999999999984e+00 1.508931999999999940e+00 -1.785629999999999995e-01 3.040379999999999749e-01 1.215648000000000062e+00 2.703220000000000067e-01 1.652079999999999937e-01 -5.912079999999999558e-01 -5.553999999999999909e-02 -7.832874999999999588e+00 -2.413314000000000181e+00 1.209009999999999946e-01 2.169360000000000177e+00 1.627094999999999958e+00 1.590270000000000017e-01 -1.283427000000000096e+00 -1.419794000000000000e+00 2.510663000000000089e+00 7.916763999999999690e+00 -5.575982999999999912e+00 -9.256090000000000151e-01 -6.669939999999999758e-01 2.240929999999999866e-01 -5.400920000000000165e-01
4.272975999999999885e+00 3.062810999999999950e+00 -3.260889000000000149e+00 -5.556309999999999860e-01 1.801806999999999936e+00 1.633199999999999930e-01 1.727271000000000001e+00 1.943403999999999909e+00 -1.113169999999999993e+00 1.418206000000000078e+00 6.851890000000000480e-01 6.779420000000000446e-01 -4.356510000000000105e-01 -4.616109999999999935e-01 -7.267510000000000359e-01 -6.303000000000000269e-02 1.125396999999999981e+00 -1.025120999999999949e+00 -4.190940000000000221e-01 -7.102610000000000312e-01 -2.428970000000000018e-01 5.746577000000000268e+00 -4.433104000000000156e+00 3.319739999999999913e+00 -1.006939000000000028e+01 2.512723999999999958e+00 2.318881999999999888e+00 -1.087296000000000040e+00 -2.678898999999999919e+00 2.748140000000000027e-01 -1.404010999999999898e+00 -1.296974000000000071e+00 2.078969999999999985e-01 8.013460000000000027e-01 -3.470079999999999831e-01 -1.354554000000000036e+00 -1.150047000000000041e+00 3.621719999999999939e-01 -5.267460000000000475e-01 2.630160000000000275e-01 -3.140220000000000233e-01 8.000500000000000667e-02 9.310200000000000420e-02 -4.571009999999999796e-01 3.841589999999999727e-01 8.616580000000000350e-01 -7.945240000000000080e-01 8.233669999999999600e-01
1.155014999999999903e+00 2.702309999999999990e-01 -6.280710000000000459e-01 -4.539309999999999734e-01 -5.743369999999999864e-01 5.227400000000000102e-02 -8.350790000000000157e-01 8.369200000000000250e-02 1.497940000000000105e-01 1.399799999999999933e-01 -1.220500000000000057e-01 1.171728000000000103e+00 -8.750000000000000000e-01 -1.802688000000000068e+00 -1.815992999999999968e+00 1.064159000000000077e+00 1.084534000000000109e+00 6.513710000000000333e-01 4.713180000000000147e-01 -4.948930000000000273e-01 -9.408830000000000249e-01 -4.815465999999999802e+00 -4.149468999999999852e+00 -9.723981999999999459e+00 -8.853060000000000374e-01 5.151130000000000431e-01 5.144859999999999989e-01 3.589809999999999945e-01 -5.135600000000000165e-01 1.298356000000000066e+00 -9.586189999999999989e-01 -6.058019999999999516e-01 -5.007270000000000332e-01 1.869879999999999876e-01 -1.277495000000000047e+00 2.086565999999999921e+00 4.314209999999999989e-01 4.645980000000000110e-01 7.197499999999999731e-02 -7.365629999999999677e-01 9.549370000000000358e-01 2.201400000000000023e-01 5.345667999999999864e+00 5.780100000000000016e+00 7.541330000000000311e+00 4.064340000000000175e-01 3.870910000000000184e-01 -1.483619999999999939e-01
4.028660000000000019e-01 2.845989999999999909e-01 1.772120000000000084e-01 -4.138510000000000244e-01 -3.083009999999999917e-01 -7.116839999999999833e-01 2.295357999999999787e+00 4.655819999999999959e-01 8.310020000000000184e-01 -1.561590000000000034e+00 9.488999999999999171e-03 -1.524564999999999948e+00 -1.459243000000000068e+00 1.122979999999999950e-01 -2.825556999999999874e+00 1.101205999999999907e+00 1.265757000000000021e+00 4.696499999999999980e-02 -3.620050000000000212e-01 -5.992499999999999910e-02 -1.641039999999999999e-01 -7.961179999999999923e-01 2.143702000000000218e+00 -7.826299999999999923e-02 -9.487800000000000400e-02 2.051840000000000053e-01 -4.690309999999999757e-01 3.105036999999999825e+00 6.375509999999999788e-01 7.117683000000000426e+00 1.851445000000000007e+00 1.393162999999999929e+00 1.287336000000000036e+00 6.738349999999999618e-01 4.893499999999999933e-02 1.422739999999999894e+00 -6.456199999999999717e-01 1.446639999999999870e-01 8.074510000000000298e-01 9.224699999999999567e-02 -3.357950999999999908e+00 5.299819999999999531e-01 -5.015374000000000443e+00 -2.220181999999999878e+00 -8.871612999999999971e+00 8.266839999999999744e-01 -7.645640000000000214e-01 2.424443999999999821e+00
-6.759864999999999569e+00 2.066761000000000070e+00 1.393723000000000045e+00 1.333426000000000000e+00 -8.187630000000000186e-01 7.355490000000000084e-01 1.224969999999999892e+00 1.304057999999999939e+00 -1.878355999999999915e+00 -3.646199999999999997e-01 -1.098993000000000109e+00 -1.368197000000000108e+00 1.705176000000000025e+00 -3.144175000000000164e+00 2.632760000000000100e-01 -1.337906000000000040e+00 2.851989000000000107e+00 -1.976711000000000107e+00 -1.161360000000000031e-01 5.715900000000000147e-02 -9.841309999999999780e-01 1.640250999999999904e+00 -2.437374999999999847e+00 1.379579000000000111e+00 1.105431999999999970e+00 6.886959999999999749e-01 2.455940000000000067e-01 4.551259999999999750e-01 2.121192000000000188e+00 9.312460000000000182e-01 -3.754440000000000000e-01 -2.685010000000000119e+00 5.297199999999999825e-02 1.439080000000000081e-01 -1.294539000000000106e+00 1.360346000000000055e+00 -1.364894999999999969e+00 -1.966479999999999895e-01 -3.159580000000000166e-01 2.198140000000000094e-01 -4.520469999999999766e-01 1.150649000000000033e+00 4.069774999999999920e+00 3.056180000000000008e-01 -1.162249000000000088e+00 -1.579012000000000082e+00 2.732076999999999867e+00 1.726669999999999872e-01
