9.196769999999999667e-01 5.695580000000000087e-01 -4.266619999999999857e-01 4.925789999999999891e-01 2.508549999999999947e-01 -9.388319999999999999e-01 9.789379999999999749e-01 6.422750000000000403e-01 4.632680000000000131e-01 3.674220000000000264e-01 -7.395699999999999497e-02 2.000570000000000126e-01 -3.114250000000000074e-01 9.507029999999999648e-01 8.037689999999999557e-01 4.706899999999999973e-02 -5.635300000000000031e-02 -7.289199999999999846e-02 -4.942070000000000074e-01 -1.203788000000000080e+00 -9.415270000000000028e-01 5.520129999999999759e-01 -5.055799999999999877e-02 -5.564999999999999634e-03 -8.448520000000000474e-01 -3.400599999999999734e-01 7.439259999999999762e-01 -8.129760000000000320e-01 5.040999999999999925e-01 4.297670000000000101e-01 2.486800000000000122e-02 -9.721360000000000001e-01 3.588000000000000043e-03 9.106680000000000330e-01 9.410349999999999548e-01 -6.924460000000000059e-01 2.521370000000000000e-01 -3.408820000000000183e-01 9.370199999999999363e-02 3.319940000000000113e-01 -5.844499999999999695e-02 -5.612460000000000226e-01 1.710619999999999918e-01 -1.749290000000000012e-01 -1.143200000000000049e-01 -2.537769999999999748e-01 1.564919999999999922e-01 -5.706750000000000433e-01 2.105279999999999929e-01 3.199014000000000024e+00 4.236646000000000356e+00 7.212499999999999467e-02 7.166670000000000540e-01 5.717769999999999797e-01 1.438347000000000042e+00 -2.025019999999999876e-01 -5.445210000000000328e-01 -9.928730000000000055e-01 -2.219619999999999926e+00 1.045429999999999970e-01 -2.931170000000000164e-01 3.405580000000000274e-01 8.479699999999999738e-02 -2.687760000000000149e-01 -5.219749999999999668e-01 -6.641569999999999974e-01 -4.029730000000000256e-01 -3.563479000000000063e+00 -1.660002999999999895e+00 -1.181050000000000016e-01 -3.904599999999999738e-01 4.212040000000000228e-01 -5.267830000000000013e-01 7.794720000000000537e-01 3.509079999999999977e-01 1.456625999999999976e+00 1.507300000000000029e-01 -9.489149999999999530e-01 -1.974294999999999911e+00 -5.822220000000000173e-01 -2.108711000000000002e+00 -5.026500000000000412e-01 -8.455759999999999943e-01 -9.382869999999999822e-01 1.866309999999999913e-01 1.120846000000000009e+00 1.010383000000000031e+00 -3.315239999999999854e-01 4.904999999999999638e-03 1.855193000000000092e+00 1.129299999999999922e-02 6.248040000000000260e-01 -2.653329999999999855e-01 -2.956449999999999911e-01 6.449279999999999458e-01 8.056299999999999573e-02
9.809020000000000516e-01 -4.474486999999999881e+00 -4.069111999999999618e+00 -2.760400000000000076e-01 -5.766980000000000439e-01 7.160299999999999998e-02 -1.035298000000000052e+00 -1.434606999999999966e+00 7.096620000000000150e-01 -1.444944000000000006e+00 1.935880000000000101e-01 -1.270863999999999994e+00 2.994850000000000012e-01 -8.853189999999999671e-01 -1.005309000000000008e+00 5.469519999999999937e-01 1.552246999999999932e+00 -7.929479999999999862e-01 1.682082999999999995e+00 5.268620000000000525e-01 5.065220000000000278e-01 1.698290000000000077e-01 -5.120130000000000514e-01 -4.722459999999999991e-01 -4.033599999999999963e-01 -8.323990000000000000e-01 -4.863600000000000145e-01 8.497500000000000053e-01 4.809849999999999959e-01 -1.052224000000000048e+00 1.209912000000000099e+00 -1.634611000000000036e+00 -1.297760000000000025e-01 4.466600000000000015e-01 1.128522000000000025e+00 -1.333515000000000006e+00 5.026089999999999725e-01 -2.584870000000000223e-01 -6.030419999999999670e-01 7.697939999999999783e-01 1.493829999999999880e-01 1.803579000000000043e+00 4.494969999999999799e-01 -2.754840000000000066e-01 -4.814999999999999836e-02 -9.647999999999999632e-02 6.095169999999999755e-01 1.552052999999999905e+00 -2.162040000000000073e-01 4.372659999999999880e-01 -7.647030000000000216e-01 -7.788840000000000208e-01 -2.245855999999999852e+00 -1.391719999999999902e-01 -3.385830000000000228e-01 -4.310919999999999752e-01 -4.845200000000000201e-02 -3.819759999999999822e-01 1.277649999999999897e-01 -2.461289999999999867e-01 6.608880000000000310e-01 -9.540340000000000487e-01 3.023000999999999827e+00 -3.514579999999999926e-01 7.664100000000000079e-02 1.448149999999999993e-01 1.291412999999999922e+00 1.066448000000000063e+00 6.477299999999999724e-02 9.745209999999999706e-01 1.462841000000000058e+00 1.994090000000000029e-01 -3.047719999999999874e-01 5.288450000000000095e-01 -1.556230000000000113e-01 -1.499711999999999934e+00 2.661040000000000072e-01 2.750940000000000052e-01 -1.388689999999999980e+00 7.445490000000000164e-01 1.063782000000000005e+00 -1.056505000000000027e+00 -8.259630000000000027e-01 -4.945880000000000276e-01 -5.146990000000000176e-01 -5.201580000000000092e-01 -9.198599999999999832e-02 -1.167342000000000102e+00 4.549799999999999678e-02 8.356749999999999456e-01 5.345239999999999991e-01 2.820509999999999962e-01 1.655570000000000097e-01 -1.138730000000000020e-01 6.182095999999999592e+00 2.788673000000000179e+00
-2.230840000000000045e-01 -7.991679999999999895e-01 -2.697379999999999778e-01 -8.229300000000000503e-02 -1.721479999999999955e-01 2.851960000000000051e-01 6.545450000000000434e-01 2.871790000000000176e-01 9.654589999999999561e-01 -4.305269999999999930e-01 2.276060000000000028e-01 -3.331200000000000133e-02 -9.251179999999999959e-01 -2.048500000000000043e-01 -8.694020000000000081e-01 -2.795070000000000054e-01 1.658499999999999905e-02 -9.540480000000000071e-01 6.352299999999999613e-01 7.109879999999999534e-01 -9.132550000000000390e-01 -7.199160000000000004e-01 -1.187964999999999938e+00 -7.568009999999999460e-01 4.060429999999999873e-01 7.291699999999999848e-01 -1.252530000000000032e-01 -9.237689999999999513e-01 -2.790880000000000027e-01 -1.689777000000000085e+00 -3.410099999999999798e-01 -1.969399999999999970e-02 2.317700000000000038e-01 1.111130000000000034e-01 1.412360000000000004e-01 7.066320000000000379e-01 -1.623798000000000075e+00 4.958396999999999721e+00 3.924951000000000079e+00 7.594130000000000047e-01 1.492664999999999909e+00 -2.698949999999999960e-01 1.043257000000000101e+00 5.455100000000000504e-01 8.246590000000000309e-01 -3.258980000000000210e-01 7.166489999999999805e-01 4.121690000000000076e-01 -2.379729999999999901e-01 -1.667359999999999953e-01 -2.626700000000000146e-01 -9.855990000000000029e-01 4.671130000000000004e-01 2.357289999999999941e-01 6.624560000000000448e-01 6.327169999999999739e-01 2.122900000000000134e-02 8.015349999999999975e-01 2.053460000000000008e-01 3.334309999999999774e-01 7.002730000000000343e-01 -4.141329999999999734e-01 -1.346419000000000032e+00 9.737780000000000324e-01 -5.878219999999999557e-01 9.518000000000000071e-02 7.190029999999999477e-01 3.367300000000000154e-02 9.212299999999999933e-01 2.751140000000000252e-01 -4.710099999999999704e-02 9.131059999999999732e-01 4.160090000000000177e-01 -7.710169999999999524e-01 -1.213090000000000002e-01 -7.029699999999999838e-01 2.397100000000000064e-01 8.871229999999999949e-01 6.839070000000000427e-01 -1.902929999999999899e-01 1.920000000000000049e-03 -2.698570000000000135e-01 -9.092500000000000582e-02 1.108062000000000102e+00 -9.890419999999999767e-01 -8.427120000000000166e-01 -1.175206999999999891e+00 4.942099999999999965e-02 -5.514580999999999733e+00 -4.663516000000000439e+00 -1.026365999999999890e+00 -3.005100000000000132e-02 3.131019999999999914e-01 1.195629999999999971e+00 -8.626100000000000434e-02 1.269652999999999921e+00
-1.044338999999999906e+00 2.448680000000000023e-01 -2.845179999999999931e-01 1.516902999999999890e+00 6.800049999999999706e-01 -4.288020000000000165e-01 -1.014639999999999986e-01 8.230429999999999691e-01 -8.328999999999999598e-03 -3.223179999999999934e-01 1.012050000000000033e-01 3.528390000000000137e-01 7.653360000000000163e-01 3.928679999999999950e-01 -6.899060000000000192e-01 2.568110000000000115e-01 4.600960000000000050e-01 5.083490000000000508e-01 -6.839929999999999621e-01 1.043536999999999937e+00 -2.553480000000000194e-01 -3.150600000000000067e-01 -8.774910000000000210e-01 3.513669999999999849e-01 3.964559999999999751e-01 -2.642070000000000252e-01 -2.586999999999999855e-01 3.582000000000000114e-03 -6.023929999999999563e-01 3.281240000000000268e-01 1.168315999999999910e+00 9.453949999999999854e-01 -1.780815000000000037e+00 2.906759999999999899e-01 -7.921909999999999785e-01 1.271060999999999996e+00 8.556280000000000552e-01 -3.613029999999999853e-01 -2.117370000000000085e-01 1.074338999999999933e+00 6.399460000000000148e-01 2.418500000000000164e-02 -1.536227000000000009e+00 7.169940000000000202e-01 8.238520000000000287e-01 -4.507780000000000120e-01 -1.397420000000000051e-01 -6.412579999999999947e-01 5.525600000000000511e-01 4.272110000000000074e-01 8.351560000000000095e-01 -1.457041000000000031e+00 1.604328999999999894e+00 -4.913460000000000050e-01 1.371572999999999931e+00 -1.338530999999999915e+00 5.265600000000000142e-02 -1.816450000000000009e-01 1.465639999999999998e-01 9.206269999999999731e-01 -6.823099999999999998e-02 -2.508730000000000127e-01 3.373200000000000087e-01 -1.410336000000000034e+00 -4.835840000000000138e-01 1.072877000000000081e+00 6.452199999999999602e-02 3.638359999999999927e-01 9.367910000000000403e-01 -1.041698000000000013e+00 4.172449999999999770e-01 -1.025500000000000023e-01 6.450719999999999787e-01 9.134849999999999914e-01 -8.480809999999999738e-01 -4.573360000000000203e-01 -1.144425999999999943e+00 1.091990000000000044e-01 -7.243570000000000286e-01 -3.988849999999999896e-01 -4.993549999999999933e-01 -3.528773000000000160e+00 3.383016000000000023e+00 3.418669999999999765e-01 -4.705079999999999818e-01 -2.010523000000000060e+00 -7.283260000000000289e-01 4.737899999999999778e+00 -4.130198000000000036e+00 -2.970970000000000000e-01 8.914229999999999654e-01 -4.506669999999999843e-01 -2.648960000000000203e-01 -7.969950000000000090e-01 -5.862900000000000056e-02 -4.752080000000000193e-01
-7.184120000000000505e-01 -2.631430000000000158e-01 1.635639999999999872e-01 -4.061710000000000043e-01 -4.285430000000000073e-01 -3.528680000000000150e-01 -7.142309999999999492e-01 -8.017199999999999327e-02 1.630225999999999953e+00 -1.003660999999999914e+00 -8.075639999999999485e-01 7.439550000000000329e-01 4.093069999999999764e-01 1.011929000000000078e+00 -1.639164999999999983e+00 -1.039152000000000076e+00 -1.017851999999999979e+00 -2.668260000000000076e-01 -9.484909999999999730e-01 -1.784280000000000033e-01 5.075920000000000432e-01 5.151989999999999625e-01 -1.389669000000000043e+00 8.324970000000000425e-01 -5.580589999999999717e-01 1.365820999999999952e+00 -1.205154999999999976e+00 1.129326000000000052e+00 -6.063159999999999661e-01 3.050059999999999993e-01 -1.556314999999999893e+00 -5.425499999999999767e-01 -1.227354000000000056e+00 -4.333409999999999762e-01 1.708731999999999918e+00 4.581649999999999889e-01 1.879850000000000132e-01 -8.976269999999999527e-01 6.287939999999999641e-01 2.591800000000000007e-02 1.353976999999999986e+00 -8.927669999999999773e-01 -2.247570000000000123e-01 5.245720000000000383e-01 -1.293401000000000023e+00 7.949490000000000167e-01 1.522110000000000130e-01 7.046919999999999851e-01 1.066632000000000025e+00 -2.839840000000000142e-01 -5.556020000000000403e-01 -1.157917000000000085e+00 -3.436350000000000238e-01 -8.921499999999999986e-01 -1.032138999999999918e+00 1.072588000000000097e+00 -1.214121999999999924e+00 1.316039999999999988e-01 3.045039999999999969e-01 7.901730000000000143e-01 2.587760000000000060e-01 4.551560000000000050e-01 1.200090000000000046e-01 -4.737669999999999937e-01 -7.887520000000000087e-01 -8.339039999999999786e-01 -5.400810000000000333e-01 8.815800000000000025e-02 1.165767999999999915e+00 4.589992999999999768e+00 3.803910999999999820e+00 4.094699999999999729e-02 5.111000000000000092e-03 7.898979999999999890e-01 5.619699999999999696e-02 -6.524180000000000534e-01 5.202069999999999750e-01 -7.696400000000000463e-02 1.470048999999999939e+00 5.746719999999999606e-01 1.043444999999999956e+00 -2.760800000000000143e+00 -5.817489000000000132e+00 4.936400000000000232e-01 1.633449999999999902e-01 -7.781749999999999501e-01 1.293960000000000110e-01 1.599237000000000020e+00 9.968519999999999603e-01 -5.914099999999999913e-02 5.054750000000000076e-01 3.127289999999999792e-01 -2.879260000000000153e-01 1.366807000000000105e+00 -8.120169999999999888e-01 9.832779999999999854e-01
2.873479999999999923e-01 -3.483339999999999770e-01 6.305049999999999821e-01 4.019320000000000115e-01 -4.900209999999999844e-01 -4.568559999999999843e-01 -1.987609999999999932e-01 -3.443899999999999739e-01 6.929929999999999701e-01 -1.216736999999999957e+00 -6.546490000000000364e-01 -1.020099000000000089e+00 -1.992270999999999903e+00 -1.117100000000000037e-01 -7.642100000000000282e-02 2.861529999999999907e-01 -1.929949999999999999e-01 6.794040000000000079e-01 -6.738779999999999770e-01 -1.396020000000000039e-01 -2.514370000000000216e-01 7.905659999999999910e-01 9.512300000000000200e-01 9.403200000000000447e-02 -3.383075999999999972e+00 -1.044859999999999900e+00 4.683187000000000211e+00 9.974840000000000373e-01 1.423678999999999917e+00 -1.751310000000000089e-01 -2.467310000000000059e-01 -1.566999999999999990e-02 -7.748359999999999692e-01 3.208579999999999766e-01 5.629349999999999632e-01 -1.569530000000000092e-01 -7.875899999999999568e-02 3.251209999999999933e-01 -8.906400000000000428e-02 9.743300000000000294e-01 8.188339999999999508e-01 9.887500000000000455e-02 6.839299999999999546e-02 -8.486519999999999619e-01 5.325830000000000286e-01 2.132500000000000021e-02 -5.826139999999999652e-01 2.210870000000000057e-01 4.213790000000000036e-01 2.093270000000000131e-01 1.010660000000000031e-01 7.291940000000000088e-01 -3.464400000000000257e-01 -8.524110000000000298e-01 8.589830000000000521e-01 5.107080000000000508e-01 -7.582750000000000323e-01 5.397478000000000442e+00 -3.914480000000000182e+00 -4.002879000000000076e+00 -4.232239999999999891e-01 -1.012593999999999994e+00 4.680790000000000228e-01 -6.500299999999999967e-01 5.322829999999999506e-01 -6.189839999999999787e-01 -2.218900000000000039e-01 1.860400000000000109e-01 -7.317700000000000593e-02 3.015309999999999935e-01 -2.585879999999999845e-01 2.648039999999999838e-01 9.883400000000000518e-02 -8.220659999999999634e-01 -9.027319999999999789e-01 -3.428946999999999967e+00 4.966124999999999901e+00 -1.025099999999999970e-02 7.117599999999999483e-01 -5.846970000000000223e-01 -2.822299999999999809e-01 -7.063599999999999879e-01 7.377029999999999976e-01 1.346220999999999890e+00 -1.904319999999999902e-01 -1.416191999999999895e+00 3.111486999999999892e+00 2.762669999999999848e-01 2.458741999999999983e+00 -1.424439000000000011e+00 7.155500000000000194e-01 -5.607659999999999867e-01 -5.820009999999999906e-01 -2.482679999999999887e-01 6.590000000000000371e-03 -4.161460000000000159e-01
3.519129999999999758e-01 4.628439999999999777e-01 -1.969889999999999974e-01 1.574252999999999902e+00 -1.807765000000000066e+00 -3.840600000000000264e-02 1.274675000000000002e+00 -6.344619999999999704e-01 -1.268278000000000016e+00 -4.762870000000000159e-01 1.210406000000000093e+00 4.296840000000000104e-01 4.425049999999999817e-01 3.116607000000000127e+00 4.487941000000000180e+00 -6.143189999999999484e-01 1.080630000000000063e-01 -1.687840000000000007e+00 -7.866549999999999931e-01 9.867000000000000770e-03 -4.571339999999999848e-01 -1.229138999999999982e+00 3.643100000000000227e-01 5.305530000000000523e-01 -1.044400000000000051e-01 1.206874999999999920e+00 3.664580000000000060e-01 -1.032431000000000099e+00 -6.484309999999999796e-01 3.648299999999999876e-01 -8.847629999999999661e-01 2.986630000000000118e-01 -8.273199999999999998e-02 -5.865580000000000238e-01 6.523060000000000525e-01 1.492080000000000073e-01 6.881469999999999532e-01 -1.326788999999999996e+00 1.140851999999999977e+00 9.072170000000000512e-01 -6.723109999999999919e-01 -7.722170000000000423e-01 -1.534159999999999968e-01 -1.109258000000000077e+00 -1.331450999999999940e+00 6.540829999999999700e-01 2.721319999999999850e-01 -6.597999999999999698e-02 2.345849999999999880e-01 5.328810000000000491e-01 -4.308040000000000203e-01 1.155720000000000081e+00 -3.745930000000000093e-01 -5.475550000000000139e-01 2.609009999999999940e-01 1.442660000000000053e+00 -8.878779999999999450e-01 -5.158859999999999557e-01 -2.330799999999999886e-02 -2.129209999999999992e-01 9.180040000000000422e-01 1.481011999999999995e+00 -2.313099999999999878e-01 -4.947829999999999728e-01 -8.944599999999999773e-02 -7.042589999999999684e-01 -1.717160000000000075e-01 -1.552580000000000071e-01 5.851830000000000087e-01 -1.032782000000000089e+00 -4.993000000000000216e-02 1.076943999999999901e+00 -8.581729999999999636e-01 5.020339999999999803e-01 -4.324970000000000203e-01 6.742529999999999912e-01 -4.261829999999999785e-01 8.295299999999999896e-02 4.283520000000000105e-01 1.008659999999999890e+00 -2.684000000000000188e-03 3.180729999999999946e-01 -1.372999999999999998e+00 1.106848999999999972e+00 -1.510823000000000027e+00 -3.180189999999999961e-01 4.057299999999999796e-02 -4.942449999999999899e-01 -3.787469000000000197e+00 -3.134841000000000211e+00 1.099379999999999941e-01 6.465279999999999916e-01 1.531484000000000067e+00 9.537959999999999772e-01 -5.196269999999999500e-01 5.922640000000000127e-01
