1.457209999999999894e+00 1.669750000000000068e+00 1.226089999999999902e+00 4.227839999999999598e+00 1.447079999999999922e+00 4.260679999999999801e+00 2.764810000000000212e+00 1.518400000000000027e-01 3.165480000000000071e+00 5.604739999999999611e+00 -3.769999999999999740e-02 5.675779999999999603e+00 4.416730000000000267e+00 4.529180000000000206e+00 4.178469999999999906e+00 3.210809999999999942e+00 3.005650000000000155e+00 5.682929999999999815e+00 4.251330000000000275e+00 1.286559999999999926e+00 1.599809999999999954e+00 1.292399999999999938e-01 1.697599999999999942e-01 3.049949999999999939e+00 5.660029999999999895e+00 2.958990000000000009e+00 5.614589999999999748e+00 4.642979999999999663e+00 4.466739999999999711e+00 1.814119999999999955e+00 1.464970000000000105e+00 4.390690000000000204e+00 1.235929999999999973e+00 1.612800000000000011e+00 1.067790000000000017e+00 4.438519999999999577e+00 3.091479999999999784e+00 5.494989999999999597e+00 5.716179999999999595e+00 1.144579999999999931e+00 4.575929999999999609e+00 4.415820000000000078e+00 2.857559999999999878e+00 3.019210000000000171e+00 2.932319999999999816e+00 5.718810000000000393e+00 2.953160000000000007e+00 2.811110000000000220e+00
1.646910000000000096e+00 4.637870000000000381e+00 4.424009999999999998e+00 1.679400000000000004e+00 4.322339999999999627e+00 1.624190000000000023e+00 3.084010000000000140e+00 2.473599999999999965e-01 3.029490000000000016e+00 5.603909999999999947e+00 5.897730000000000139e+00 1.019000000000000045e-01 4.457950000000000301e+00 1.483640000000000070e+00 1.656179999999999986e+00 1.413380000000000081e+00 1.404390000000000027e+00 1.405580000000000052e+00 3.143749999999999822e+00 3.172620000000000218e+00 3.418270000000000142e+00 4.706610000000000404e+00 1.415920000000000067e+00 4.688860000000000028e+00 4.093390000000000306e+00 4.298029999999999795e+00 4.751210000000000377e+00 5.946799999999999642e+00 2.804920000000000080e+00 5.912169999999999703e+00 3.043870000000000076e+00 2.937500000000000111e-01 7.323999999999999955e-02 4.330680000000000085e+00 4.380959999999999965e+00 1.420879999999999921e+00 2.756000000000000116e-01 3.181659999999999933e+00 3.156429999999999847e+00 2.992049999999999876e+00 2.928549999999999986e+00 5.811910000000000132e+00 5.574840000000000018e+00 5.836610000000000298e+00 2.788159999999999972e+00 1.384370000000000100e+00 1.376109999999999944e+00 4.184829999999999828e+00
2.595810000000000173e+00 2.871440000000000214e+00 3.619299999999999740e-01 4.154349999999999987e+00 4.111790000000000056e+00 1.557239999999999958e+00 1.468110000000000026e+00 1.324650000000000105e+00 4.275360000000000049e+00 1.155310000000000059e+00 4.236019999999999897e+00 1.810950000000000060e+00 2.818649999999999878e+00 2.672309999999999963e+00 2.748600000000000154e+00 -9.009999999999999953e-02 5.362420000000000186e+00 5.707939999999999792e+00 2.819090000000000096e+00 5.333490000000000286e+00 2.875690000000000079e+00 1.190690000000000026e+00 1.164490000000000025e+00 1.580549999999999899e+00 2.599699999999999789e-01 3.023010000000000197e+00 8.114000000000000379e-02 5.501199999999999868e+00 2.932230000000000114e+00 2.898429999999999840e+00 4.440109999999999779e+00 3.876829999999999998e+00 4.223760000000000403e+00 4.508810000000000429e+00 1.308640000000000025e+00 1.165519999999999889e+00 5.424549999999999983e+00 2.349700000000000122e-01 3.104080000000000172e+00 1.354289999999999994e+00 4.166929999999999801e+00 4.239620000000000388e+00 2.802500000000000213e+00 5.287469999999999892e+00 5.540530000000000399e+00 3.995060000000000056e+00 1.482169999999999987e+00 4.742899999999999672e+00
2.741750000000000131e+00 2.954559999999999853e+00 4.700000000000000185e-03 3.950369999999999937e+00 4.083359999999999879e+00 1.980450000000000044e+00 1.485079999999999956e+00 1.392970000000000041e+00 4.317859999999999587e+00 1.745279999999999943e+00 4.542849999999999611e+00 1.344770000000000021e+00 2.942930000000000046e+00 2.586549999999999905e+00 2.742010000000000058e+00 5.580820000000000114e+00 5.442149999999999821e+00 5.864539999999999864e+00 2.858449999999999935e+00 8.268999999999999961e-02 3.171440000000000037e+00 1.529519999999999991e+00 1.053549999999999986e+00 1.334559999999999969e+00 5.645299999999999763e+00 3.169309999999999850e+00 5.207100000000000062e-01 5.814600000000000435e+00 2.764520000000000088e+00 2.897219999999999906e+00 4.341510000000000424e+00 4.115529999999999688e+00 4.298129999999999562e+00 4.515839999999999854e+00 1.199370000000000047e+00 1.441999999999999948e+00 5.808769999999999989e+00 1.655999999999999972e-01 3.206139999999999990e+00 1.365339999999999998e+00 4.099409999999999776e+00 4.308620000000000339e+00 2.977739999999999831e+00 -1.378699999999999926e-01 5.692689999999999806e+00 4.308069999999999844e+00 1.465430000000000010e+00 4.843289999999999651e+00
4.529770000000000074e+00 1.430989999999999984e+00 1.294859999999999900e+00 4.594129999999999825e+00 1.394290000000000029e+00 4.828680000000000305e+00 3.167730000000000157e+00 -3.459999999999999968e-03 2.983989999999999920e+00 3.672300000000000009e-01 5.766790000000000305e+00 3.339329999999999909e+00 4.783229999999999649e+00 4.323080000000000034e+00 4.384540000000000326e+00 5.872139999999999915e+00 2.935719999999999885e+00 2.911399999999999988e+00 2.969980000000000064e+00 2.724610000000000198e+00 6.005460000000000242e+00 4.597349999999999604e+00 4.505799999999999805e+00 1.784629999999999939e+00 7.058000000000000385e-02 2.825089999999999879e+00 5.830300000000000260e+00 1.560519999999999907e+00 1.417350000000000110e+00 4.234210000000000029e+00 2.907509999999999817e+00 2.503410000000000135e+00 3.189350000000000129e+00 1.503759999999999986e+00 4.554739999999999789e+00 1.664760000000000018e+00 1.285300000000000109e+00 1.467519999999999936e+00 1.464020000000000099e+00 2.733540000000000081e+00 1.977099999999999969e-01 5.848429999999999573e+00 5.851899999999999658e+00 5.688189999999999635e+00 1.642099999999999949e-01 1.644579999999999931e+00 4.193780000000000285e+00 4.326220000000000176e+00
4.492429999999999701e+00 1.405140000000000056e+00 1.152870000000000061e+00 4.840329999999999799e+00 1.178970000000000073e+00 4.672519999999999563e+00 3.191279999999999895e+00 1.810499999999999887e-01 3.052369999999999806e+00 3.830899999999999861e-01 1.083699999999999941e-01 2.943960000000000132e+00 4.751039999999999708e+00 4.649090000000000167e+00 4.199360000000000426e+00 6.102009999999999934e+00 2.607850000000000001e+00 3.067369999999999930e+00 3.201970000000000205e+00 3.088029999999999831e+00 5.827759999999999607e+00 4.054820000000000313e+00 3.883350000000000080e+00 1.936930000000000041e+00 5.727190000000000225e+00 3.121140000000000025e+00 6.086380000000000123e+00 1.379960000000000075e+00 1.132819999999999938e+00 4.933460000000000178e+00 2.898740000000000094e+00 2.450969999999999871e+00 3.545960000000000001e+00 1.577169999999999961e+00 4.442890000000000228e+00 1.507370000000000099e+00 1.348419999999999952e+00 2.208720000000000017e+00 1.024880000000000013e+00 3.660890000000000200e+00 5.714879999999999960e+00 5.669190000000000396e+00 5.980920000000000236e+00 5.866740000000000066e+00 4.197699999999999765e-01 1.649650000000000061e+00 4.544509999999999827e+00 4.992639999999999745e+00
4.674089999999999634e+00 1.617979999999999974e+00 1.487740000000000062e+00 4.614209999999999923e+00 4.271069999999999922e+00 1.501710000000000100e+00 6.005480000000000373e+00 3.263479999999999936e+00 5.733389999999999986e+00 4.491139999999999688e+00 1.282899999999999929e+00 4.610560000000000436e+00 2.836619999999999919e+00 3.106900000000000217e-01 9.572999999999999565e-02 5.936149999999999594e+00 7.772999999999999354e-02 2.945780000000000065e+00 1.714669999999999916e+00 1.368889999999999940e+00 1.321039999999999992e+00 9.639000000000000346e-02 5.937540000000000262e+00 3.366000000000000242e-02 3.389069999999999805e+00 3.016999999999999890e-02 2.530089999999999950e+00 3.099000000000000019e-02 2.887420000000000098e+00 3.378359999999999808e+00 1.767060000000000075e+00 4.264199999999999768e+00 1.577260000000000106e+00 1.738779999999999992e+00 4.865199999999999747e+00 4.023909999999999876e+00 2.492379999999999818e+00 3.113339999999999996e+00 5.463339999999999641e+00 4.231620000000000381e+00 4.677780000000000271e+00 4.383429999999999715e+00 1.401129999999999987e+00 1.132069999999999910e+00 4.490759999999999863e+00 3.256349999999999856e+00 3.061170000000000169e+00 3.012579999999999814e+00
