3.372100000000000097e-02 -3.722759999999999958e-01 1.514669999999999905e-01 9.186689999999999579e-01 3.480579999999999785e-01 4.499900000000000011e-01 2.659149000000000207e+00 -4.004737000000000435e+00 -5.006660000000000110e+00 8.562290000000000179e-01 3.455790000000000251e-01 1.047080999999999928e+00 -8.942100000000000048e-02 -6.598370000000000068e-01 -6.692989999999999773e-01 -8.374669999999999614e-01 -4.576000000000000206e-02 5.577800000000000535e-01 -2.156260000000000121e-01 5.024100000000000232e-01 -5.222890000000000033e-01 -3.511549999999999949e-01 -1.678290000000000060e-01 -1.573285999999999962e+00 4.650739999999999874e-01 -7.549989999999999757e-01 6.483370000000000521e-01 -1.931356000000000073e+00 1.953780999999999990e+00 -2.400138000000000105e+00 -7.835779999999999967e-01 -1.714000000000000029e-03 8.254019999999999690e-01 -2.385559999999999903e+00 4.350289000000000073e+00 4.774966000000000044e+00 -6.933610000000000051e-01 1.402657999999999960e+00 8.402249999999999996e-01 9.995969999999999578e-01 -5.954120000000000523e-01 -3.036619999999999875e-01 -4.834330000000000016e-01 -4.800900000000000306e-02 -1.042679999999999996e-01 1.838518000000000097e+00 -2.252203000000000177e+00 1.284351999999999938e+00
-8.808719999999999883e-01 9.601210000000000022e-01 9.203649999999999887e-01 4.976000000000000388e-03 4.924439999999999928e-01 -5.814890000000000336e-01 3.445899999999999658e-02 -9.770510000000000028e-01 1.489200000000000072e-02 1.141804000000000041e+00 -4.942829999999999724e-01 -1.152679999999999955e-01 7.760000000000000404e-03 1.920960999999999919e+00 -7.064230000000000231e-01 -1.887729999999999964e-01 5.217469999999999608e-01 6.586239999999999872e-01 -1.885817999999999994e+00 -3.680114000000000107e+00 -4.551601999999999926e+00 -8.411459999999999493e-01 -4.793000000000000385e-03 -1.950661999999999896e+00 5.059929999999999595e+00 5.503173999999999566e+00 1.323836999999999930e+00 9.572000000000000508e-01 1.327690000000000037e+00 8.323220000000000063e-01 -5.238770000000000371e-01 -9.625409999999999799e-01 -2.234299999999999897e-01 -5.644829999999999570e-01 -8.680710000000000370e-01 -7.920599999999999863e-02 -1.389297000000000004e+00 -2.469409999999999938e-01 -3.513029999999999764e-01 -2.162951000000000068e+00 -2.604531000000000152e+00 2.710436000000000067e+00 1.272089999999999943e+00 -6.350019999999999554e-01 1.117731999999999948e+00 -4.100199999999999678e-02 -2.528119999999999812e-01 9.811739999999999906e-01
2.795909999999999784e-01 -3.112500000000000266e-01 -1.207775000000000043e+00 1.306761999999999979e+00 1.215503999999999918e+00 -2.086107000000000156e+00 -2.980340000000000211e-01 7.616599999999999759e-02 2.057930000000000037e-01 -6.616700000000000359e-02 9.796789999999999665e-01 -9.056239999999999846e-01 -6.838600000000000234e-02 -9.209640000000000049e-01 8.697369999999999823e-01 -6.155040000000000511e-01 2.308330000000000104e-01 -2.793899999999999856e-02 5.786489999999999689e-01 2.276206000000000174e+00 8.224820000000000464e-01 6.597210000000000019e-01 3.944980000000000153e-01 1.090909999999999935e-01 -1.260388000000000064e+00 -1.022613999999999912e+00 -7.231809999999999627e-01 3.541326999999999892e+00 -4.935414999999999885e+00 -2.731770000000000032e+00 -3.632102000000000164e+00 2.897159999999999958e+00 4.391080999999999790e+00 -4.821570000000000022e-01 1.853980000000000072e-01 6.951030000000000264e-01 2.771049999999999902e-01 -3.936370000000000147e-01 3.710370000000000057e-01 -9.050110000000000099e-01 -1.203133999999999926e+00 -1.225460000000000022e-01 -4.782800000000000246e-02 -2.010510000000000075e-01 1.651820000000000066e+00 7.324199999999999600e-01 7.326209999999999667e-01 -1.311204000000000036e+00
7.389700000000000157e-01 -5.016760000000000108e-01 8.347999999999999518e-03 3.501434999999999853e+00 4.688136000000000081e+00 -3.030968000000000107e+00 -1.055550999999999906e+00 9.739590000000000192e-01 1.334718999999999989e+00 -1.732769000000000004e+00 -6.769589999999999774e-01 5.272529999999999717e-01 -2.988947000000000020e+00 -3.790525999999999840e+00 2.398721000000000103e+00 5.875190000000000135e-01 3.160999999999999921e-02 1.406870000000000065e-01 1.217400000000000038e+00 -6.791909999999999892e-01 -4.938839999999999897e-01 -6.984339999999999993e-01 1.462625999999999982e+00 8.963999999999999746e-03 7.036270000000000024e-01 -2.852199999999999874e-02 -1.063107999999999942e+00 5.307669999999999888e-01 -4.142250000000000099e-01 2.517820000000000058e-01 -3.014600000000000057e-01 -3.585630000000000206e-01 8.525939999999999630e-01 -4.161030000000000006e-01 -4.537299999999999667e-02 -2.525810000000000000e-01 -4.333499999999999852e-02 -8.149440000000000017e-01 -3.641289999999999805e-01 -4.096670000000000034e-01 6.592499999999999749e-02 1.524949999999999917e-01 -4.651069999999999927e-01 -9.423430000000000417e-01 5.729610000000000536e-01 8.316559999999999508e-01 1.030065000000000008e+00 -1.043854000000000060e+00
-1.796139999999999959e-01 5.417399999999999993e-02 6.128080000000000194e-01 1.322840000000000127e-01 -7.615910000000000180e-01 -1.332343000000000055e+00 1.096919999999999978e-01 2.327559999999999907e-01 3.728870000000000240e-01 -2.865061999999999998e+00 -7.966320000000000068e-01 -1.807417000000000051e+00 -1.524456999999999951e+00 3.369989999999999930e-01 6.588819999999999677e-01 8.139990000000000281e-01 -1.170295000000000085e+00 2.088200000000000126e-02 -1.424819999999999975e-01 7.860080000000000400e-01 2.479190000000000005e-01 -6.466730000000000533e-01 -2.363260000000000083e-01 -5.996160000000000379e-01 8.403730000000000366e-01 6.760059999999999958e-01 9.135750000000000259e-01 -1.767085000000000017e+00 6.235450000000000159e-01 3.431242000000000125e+00 3.393549999999999844e+00 2.595953999999999873e+00 -2.646520000000000206e+00 2.494639999999999913e-01 -9.340659999999999519e-01 -8.138469999999999871e-01 3.204200000000000104e-02 1.460289999999999921e-01 4.482129999999999725e-01 5.945629999999999526e-01 -1.226442999999999950e+00 4.438489999999999935e-01 6.148099999999999676e-01 1.562830000000000052e-01 -9.713570000000000260e-01 3.445949999999999847e-01 -4.824019999999999975e-01 1.020841000000000109e+00
-4.716810000000000169e-01 9.156480000000000175e-01 1.266987000000000085e+00 2.040154999999999941e+00 2.856062000000000101e+00 -1.662938000000000027e+00 -4.648499999999999854e-01 -9.130840000000000067e-01 -2.802680000000000171e-01 1.040499999999999932e-02 -7.038600000000000412e-02 -3.768960000000000088e-01 1.459060999999999941e+00 -1.877099000000000073e+00 -1.463538000000000006e+00 3.620799999999999713e-02 5.826459999999999972e-01 9.442399999999999405e-02 1.022124999999999950e+00 -5.378359999999999808e-01 4.436399999999999788e-01 2.731190000000000007e-01 4.321289999999999853e-01 -2.621490000000000209e-01 2.149540000000000062e-01 6.320280000000000342e-01 -4.419830000000000148e-01 1.990099999999999925e-01 2.252399999999999958e-01 -3.139029999999999876e-01 -2.289720000000000089e-01 8.452140000000000208e-01 -6.768480000000000052e-01 3.141720000000000068e-01 6.671890000000000320e-01 2.648039999999999838e-01 2.774249999999999772e-01 -1.601442999999999950e+00 8.844229999999999592e-01 -3.675771000000000122e+00 -1.664816000000000074e+00 3.742477000000000054e+00 1.575539999999999996e-01 -7.026559999999999473e-01 -2.822549999999999781e-01 -1.162914000000000003e+00 2.111629999999999896e-01 -9.359769999999999479e-01
4.534449999999999870e-01 9.101190000000000113e-01 -7.969019999999999992e-01 4.863910000000000178e-01 5.876000000000000147e-03 -6.274459999999999482e-01 4.262759999999999883e-01 -2.992449999999999832e-01 2.247470000000000023e-01 3.831099999999999783e-02 1.022073000000000009e+00 -6.321369999999999489e-01 4.338903000000000176e+00 -4.425489999999999924e+00 -1.366975999999999969e+00 -9.447099999999999942e-02 -2.809130000000000238e-01 -5.395759999999999446e-01 -3.548878999999999895e+00 3.415615999999999985e+00 3.749731000000000147e+00 -4.533470000000000000e-01 -1.305765999999999982e+00 1.021193000000000017e+00 -1.037007000000000012e+00 1.867570000000000063e-01 9.501629999999999798e-01 -9.196799999999999420e-02 2.495420000000000138e-01 -1.051479000000000052e+00 -8.322749999999999870e-01 5.550479999999999858e-01 -1.438599999999999879e-01 -2.478569999999999940e-01 -8.784710000000000019e-01 7.320200000000000318e-02 8.100979999999999848e-01 -4.545969999999999733e-01 2.349299999999999999e-01 1.018868000000000107e+00 1.161719999999999975e-01 9.341679999999999984e-01 -7.453199999999999825e-01 2.547286000000000161e+00 -2.206370000000000164e+00 -5.211689999999999934e-01 -1.364006999999999969e+00 1.766109999999999902e-01
