4.348564877000000273e+00 0.000000000000000000e+00 0.000000000000000000e+00 7.321716799999999914e-02 2.546692798000000035e+00 0.000000000000000000e+00 6.471848500000000615e-02 -1.755431550000000063e-01 1.791088689900000119e+01
4.704887573999999795e+00 0.000000000000000000e+00 0.000000000000000000e+00 -5.854908200000000229e-02 2.716353875999999890e+00 0.000000000000000000e+00 -2.805455620000000261e-01 7.173951400000000422e-02 1.846835885400000166e+01
4.332094630000000279e+00 0.000000000000000000e+00 0.000000000000000000e+00 3.910874599999999979e-02 2.447362120000000196e+00 0.000000000000000000e+00 5.129408600000000540e-01 2.648859889999999884e-01 1.689956310499999859e+01
4.332094630000000279e+00 0.000000000000000000e+00 0.000000000000000000e+00 3.910874599999999979e-02 2.447362120000000196e+00 0.000000000000000000e+00 5.129408600000000540e-01 2.648859889999999884e-01 1.689956310499999859e+01
4.704887573999999795e+00 0.000000000000000000e+00 0.000000000000000000e+00 -5.854908200000000229e-02 2.716353875999999890e+00 0.000000000000000000e+00 -2.805455620000000261e-01 7.173951400000000422e-02 1.846835885400000166e+01
4.704887573999999795e+00 0.000000000000000000e+00 0.000000000000000000e+00 -5.854908200000000229e-02 2.716353875999999890e+00 0.000000000000000000e+00 -2.805455620000000261e-01 7.173951400000000422e-02 1.846835885400000166e+01
