-4.182323759999999879e+01
-4.099058234999999684e+01
-4.153064937999999984e+01
-4.173372676999999698e+01
-4.096933770999999780e+01
-4.112211549999999960e+01
