2.505722000000000005e+00 0.000000000000000000e+00 0.000000000000000000e+00 0.000000000000000000e+00 4.359454000000000384e+00 0.000000000000000000e+00 0.000000000000000000e+00 1.725000000000000001e-06 2.141077900000000156e+01
2.505722000000000005e+00 0.000000000000000000e+00 0.000000000000000000e+00 0.000000000000000000e+00 4.359454000000000384e+00 0.000000000000000000e+00 0.000000000000000000e+00 1.563999999999999976e-06 1.941077900000000156e+01
2.607995999999999981e+00 0.000000000000000000e+00 0.000000000000000000e+00 0.000000000000000000e+00 4.537391000000000396e+00 0.000000000000000000e+00 0.000000000000000000e+00 1.154999999999999953e-06 1.491734100000000041e+01
2.710269999999999957e+00 0.000000000000000000e+00 0.000000000000000000e+00 0.000000000000000000e+00 4.715327000000000268e+00 0.000000000000000000e+00 0.000000000000000000e+00 1.224000000000000055e-06 1.642390299999999925e+01
2.454584000000000099e+00 0.000000000000000000e+00 0.000000000000000000e+00 0.000000000000000000e+00 4.270484999999999864e+00 0.000000000000000000e+00 0.000000000000000000e+00 1.492999999999999936e-06 1.815749699999999933e+01
2.505722000000000005e+00 0.000000000000000000e+00 0.000000000000000000e+00 0.000000000000000000e+00 4.359454000000000384e+00 0.000000000000000000e+00 0.000000000000000000e+00 1.402999999999999950e-06 1.741077900000000156e+01
2.607995999999999981e+00 0.000000000000000000e+00 0.000000000000000000e+00 0.000000000000000000e+00 4.537391000000000396e+00 0.000000000000000000e+00 0.000000000000000000e+00 1.270999999999999986e-06 1.641734100000000041e+01
2.454584000000000099e+00 0.000000000000000000e+00 0.000000000000000000e+00 0.000000000000000000e+00 4.270484999999999864e+00 0.000000000000000000e+00 0.000000000000000000e+00 1.658000000000000050e-06 2.015749699999999933e+01
2.556859000000000215e+00 0.000000000000000000e+00 0.000000000000000000e+00 0.000000000000000000e+00 4.448421999999999876e+00 0.000000000000000000e+00 0.000000000000000000e+00 1.315999999999999979e-06 1.666405999999999921e+01
2.505722000000000005e+00 0.000000000000000000e+00 0.000000000000000000e+00 0.000000000000000000e+00 4.359454000000000384e+00 0.000000000000000000e+00 0.000000000000000000e+00 1.644999999999999920e-06 2.041077900000000156e+01
2.556859000000000215e+00 0.000000000000000000e+00 0.000000000000000000e+00 0.000000000000000000e+00 4.448421999999999876e+00 0.000000000000000000e+00 0.000000000000000000e+00 1.157999999999999967e-06 1.466405999999999921e+01
2.454584000000000099e+00 0.000000000000000000e+00 0.000000000000000000e+00 0.000000000000000000e+00 4.270484999999999864e+00 0.000000000000000000e+00 0.000000000000000000e+00 1.658000000000000050e-06 2.015749699999999933e+01
2.556859000000000215e+00 0.000000000000000000e+00 0.000000000000000000e+00 0.000000000000000000e+00 4.448421999999999876e+00 0.000000000000000000e+00 0.000000000000000000e+00 1.552999999999999996e-06 1.966405999999999921e+01
2.607995999999999981e+00 0.000000000000000000e+00 0.000000000000000000e+00 0.000000000000000000e+00 4.537391000000000396e+00 0.000000000000000000e+00 0.000000000000000000e+00 1.193999999999999918e-06 1.541734100000000041e+01
2.556859000000000215e+00 0.000000000000000000e+00 0.000000000000000000e+00 0.000000000000000000e+00 4.448421999999999876e+00 0.000000000000000000e+00 0.000000000000000000e+00 1.552999999999999996e-06 1.966405999999999921e+01
2.607995999999999981e+00 0.000000000000000000e+00 0.000000000000000000e+00 0.000000000000000000e+00 4.537391000000000396e+00 0.000000000000000000e+00 0.000000000000000000e+00 1.697000000000000015e-06 2.191734100000000041e+01
2.659133000000000191e+00 0.000000000000000000e+00 0.000000000000000000e+00 0.000000000000000000e+00 4.626358999999999888e+00 0.000000000000000000e+00 0.000000000000000000e+00 1.151999999999999939e-06 1.517062199999999983e+01
2.505722000000000005e+00 0.000000000000000000e+00 0.000000000000000000e+00 0.000000000000000000e+00 4.359454000000000384e+00 0.000000000000000000e+00 0.000000000000000000e+00 1.483999999999999895e-06 1.841077900000000156e+01
2.505722000000000005e+00 0.000000000000000000e+00 0.000000000000000000e+00 0.000000000000000000e+00 4.359454000000000384e+00 0.000000000000000000e+00 0.000000000000000000e+00 1.281999999999999965e-06 1.591077899999999978e+01
2.659133000000000191e+00 0.000000000000000000e+00 0.000000000000000000e+00 0.000000000000000000e+00 4.626358999999999888e+00 0.000000000000000000e+00 0.000000000000000000e+00 1.151999999999999939e-06 1.517062199999999983e+01
2.556859000000000215e+00 0.000000000000000000e+00 0.000000000000000000e+00 0.000000000000000000e+00 4.448421999999999876e+00 0.000000000000000000e+00 0.000000000000000000e+00 1.552999999999999996e-06 1.966405999999999921e+01
2.607995999999999981e+00 0.000000000000000000e+00 0.000000000000000000e+00 0.000000000000000000e+00 4.537391000000000396e+00 0.000000000000000000e+00 0.000000000000000000e+00 1.309999999999999951e-06 1.691734100000000041e+01
2.556859000000000215e+00 0.000000000000000000e+00 0.000000000000000000e+00 0.000000000000000000e+00 4.448421999999999876e+00 0.000000000000000000e+00 0.000000000000000000e+00 1.196999999999999932e-06 1.516405999999999921e+01
2.556859000000000215e+00 0.000000000000000000e+00 0.000000000000000000e+00 0.000000000000000000e+00 4.448421999999999876e+00 0.000000000000000000e+00 0.000000000000000000e+00 1.711000000000000008e-06 2.166405999999999921e+01
2.505722000000000005e+00 0.000000000000000000e+00 0.000000000000000000e+00 0.000000000000000000e+00 4.359454000000000384e+00 0.000000000000000000e+00 0.000000000000000000e+00 1.563999999999999976e-06 1.941077900000000156e+01
2.454584000000000099e+00 0.000000000000000000e+00 0.000000000000000000e+00 0.000000000000000000e+00 4.270484999999999864e+00 0.000000000000000000e+00 0.000000000000000000e+00 1.658000000000000050e-06 2.015749699999999933e+01
2.659133000000000191e+00 0.000000000000000000e+00 0.000000000000000000e+00 0.000000000000000000e+00 4.626358999999999888e+00 0.000000000000000000e+00 0.000000000000000000e+00 1.190000000000000041e-06 1.567062199999999983e+01
2.710269999999999957e+00 0.000000000000000000e+00 0.000000000000000000e+00 0.000000000000000000e+00 4.715327000000000268e+00 0.000000000000000000e+00 0.000000000000000000e+00 1.148999999999999926e-06 1.542390299999999925e+01
2.505722000000000005e+00 0.000000000000000000e+00 0.000000000000000000e+00 0.000000000000000000e+00 4.359454000000000384e+00 0.000000000000000000e+00 0.000000000000000000e+00 1.644999999999999920e-06 2.041077900000000156e+01
2.607995999999999981e+00 0.000000000000000000e+00 0.000000000000000000e+00 0.000000000000000000e+00 4.537391000000000396e+00 0.000000000000000000e+00 0.000000000000000000e+00 1.193999999999999918e-06 1.541734100000000041e+01
2.556859000000000215e+00 0.000000000000000000e+00 0.000000000000000000e+00 0.000000000000000000e+00 4.448421999999999876e+00 0.000000000000000000e+00 0.000000000000000000e+00 1.196999999999999932e-06 1.516405999999999921e+01
2.454584000000000099e+00 0.000000000000000000e+00 0.000000000000000000e+00 0.000000000000000000e+00 4.270484999999999864e+00 0.000000000000000000e+00 0.000000000000000000e+00 1.328999999999999896e-06 1.615749699999999933e+01
2.710269999999999957e+00 0.000000000000000000e+00 0.000000000000000000e+00 0.000000000000000000e+00 4.715327000000000268e+00 0.000000000000000000e+00 0.000000000000000000e+00 1.185999999999999953e-06 1.592390299999999925e+01
2.505722000000000005e+00 0.000000000000000000e+00 0.000000000000000000e+00 0.000000000000000000e+00 4.359454000000000384e+00 0.000000000000000000e+00 0.000000000000000000e+00 1.483999999999999895e-06 1.841077900000000156e+01
2.607995999999999981e+00 0.000000000000000000e+00 0.000000000000000000e+00 0.000000000000000000e+00 4.537391000000000396e+00 0.000000000000000000e+00 0.000000000000000000e+00 1.619000000000000084e-06 2.091734100000000041e+01
2.659133000000000191e+00 0.000000000000000000e+00 0.000000000000000000e+00 0.000000000000000000e+00 4.626358999999999888e+00 0.000000000000000000e+00 0.000000000000000000e+00 1.190000000000000041e-06 1.567062199999999983e+01
2.505722000000000005e+00 0.000000000000000000e+00 0.000000000000000000e+00 0.000000000000000000e+00 4.359454000000000384e+00 0.000000000000000000e+00 0.000000000000000000e+00 1.281999999999999965e-06 1.591077899999999978e+01
2.454584000000000099e+00 0.000000000000000000e+00 0.000000000000000000e+00 0.000000000000000000e+00 4.270484999999999864e+00 0.000000000000000000e+00 0.000000000000000000e+00 1.410999999999999916e-06 1.715749699999999933e+01
2.505722000000000005e+00 0.000000000000000000e+00 0.000000000000000000e+00 0.000000000000000000e+00 4.359454000000000384e+00 0.000000000000000000e+00 0.000000000000000000e+00 1.644999999999999920e-06 2.041077900000000156e+01
2.607995999999999981e+00 0.000000000000000000e+00 0.000000000000000000e+00 0.000000000000000000e+00 4.537391000000000396e+00 0.000000000000000000e+00 0.000000000000000000e+00 1.270999999999999986e-06 1.641734100000000041e+01
2.607995999999999981e+00 0.000000000000000000e+00 0.000000000000000000e+00 0.000000000000000000e+00 4.537391000000000396e+00 0.000000000000000000e+00 0.000000000000000000e+00 1.619000000000000084e-06 2.091734100000000041e+01
2.556859000000000215e+00 0.000000000000000000e+00 0.000000000000000000e+00 0.000000000000000000e+00 4.448421999999999876e+00 0.000000000000000000e+00 0.000000000000000000e+00 1.711000000000000008e-06 2.166405999999999921e+01
2.505722000000000005e+00 0.000000000000000000e+00 0.000000000000000000e+00 0.000000000000000000e+00 4.359454000000000384e+00 0.000000000000000000e+00 0.000000000000000000e+00 1.725000000000000001e-06 2.141077900000000156e+01
2.454584000000000099e+00 0.000000000000000000e+00 0.000000000000000000e+00 0.000000000000000000e+00 4.270484999999999864e+00 0.000000000000000000e+00 0.000000000000000000e+00 1.576000000000000030e-06 1.915749699999999933e+01
2.607995999999999981e+00 0.000000000000000000e+00 0.000000000000000000e+00 0.000000000000000000e+00 4.537391000000000396e+00 0.000000000000000000e+00 0.000000000000000000e+00 1.309999999999999951e-06 1.691734100000000041e+01
2.556859000000000215e+00 0.000000000000000000e+00 0.000000000000000000e+00 0.000000000000000000e+00 4.448421999999999876e+00 0.000000000000000000e+00 0.000000000000000000e+00 1.315999999999999979e-06 1.666405999999999921e+01
2.659133000000000191e+00 0.000000000000000000e+00 0.000000000000000000e+00 0.000000000000000000e+00 4.626358999999999888e+00 0.000000000000000000e+00 0.000000000000000000e+00 1.190000000000000041e-06 1.567062199999999983e+01
2.556859000000000215e+00 0.000000000000000000e+00 0.000000000000000000e+00 0.000000000000000000e+00 4.448421999999999876e+00 0.000000000000000000e+00 0.000000000000000000e+00 1.315999999999999979e-06 1.666405999999999921e+01
2.505722000000000005e+00 0.000000000000000000e+00 0.000000000000000000e+00 0.000000000000000000e+00 4.359454000000000384e+00 0.000000000000000000e+00 0.000000000000000000e+00 1.241999999999999925e-06 1.541077899999999978e+01
2.556859000000000215e+00 0.000000000000000000e+00 0.000000000000000000e+00 0.000000000000000000e+00 4.448421999999999876e+00 0.000000000000000000e+00 0.000000000000000000e+00 1.711000000000000008e-06 2.166405999999999921e+01
2.505722000000000005e+00 0.000000000000000000e+00 0.000000000000000000e+00 0.000000000000000000e+00 4.359454000000000384e+00 0.000000000000000000e+00 0.000000000000000000e+00 1.725000000000000001e-06 2.141077900000000156e+01
2.505722000000000005e+00 0.000000000000000000e+00 0.000000000000000000e+00 0.000000000000000000e+00 4.359454000000000384e+00 0.000000000000000000e+00 0.000000000000000000e+00 1.402999999999999950e-06 1.741077900000000156e+01
2.454584000000000099e+00 0.000000000000000000e+00 0.000000000000000000e+00 0.000000000000000000e+00 4.270484999999999864e+00 0.000000000000000000e+00 0.000000000000000000e+00 1.658000000000000050e-06 2.015749699999999933e+01
2.556859000000000215e+00 0.000000000000000000e+00 0.000000000000000000e+00 0.000000000000000000e+00 4.448421999999999876e+00 0.000000000000000000e+00 0.000000000000000000e+00 1.552999999999999996e-06 1.966405999999999921e+01
2.454584000000000099e+00 0.000000000000000000e+00 0.000000000000000000e+00 0.000000000000000000e+00 4.270484999999999864e+00 0.000000000000000000e+00 0.000000000000000000e+00 1.165000000000000069e-06 1.415749699999999933e+01
2.710269999999999957e+00 0.000000000000000000e+00 0.000000000000000000e+00 0.000000000000000000e+00 4.715327000000000268e+00 0.000000000000000000e+00 0.000000000000000000e+00 1.224000000000000055e-06 1.642390299999999925e+01
2.454584000000000099e+00 0.000000000000000000e+00 0.000000000000000000e+00 0.000000000000000000e+00 4.270484999999999864e+00 0.000000000000000000e+00 0.000000000000000000e+00 1.287999999999999993e-06 1.565749699999999933e+01
2.556859000000000215e+00 0.000000000000000000e+00 0.000000000000000000e+00 0.000000000000000000e+00 4.448421999999999876e+00 0.000000000000000000e+00 0.000000000000000000e+00 1.315999999999999979e-06 1.666405999999999921e+01
2.607995999999999981e+00 0.000000000000000000e+00 0.000000000000000000e+00 0.000000000000000000e+00 4.537391000000000396e+00 0.000000000000000000e+00 0.000000000000000000e+00 1.154999999999999953e-06 1.491734100000000041e+01
2.556859000000000215e+00 0.000000000000000000e+00 0.000000000000000000e+00 0.000000000000000000e+00 4.448421999999999876e+00 0.000000000000000000e+00 0.000000000000000000e+00 1.632000000000000002e-06 2.066405999999999921e+01
2.710269999999999957e+00 0.000000000000000000e+00 0.000000000000000000e+00 0.000000000000000000e+00 4.715327000000000268e+00 0.000000000000000000e+00 0.000000000000000000e+00 1.148999999999999926e-06 1.542390299999999925e+01
2.607995999999999981e+00 0.000000000000000000e+00 0.000000000000000000e+00 0.000000000000000000e+00 4.537391000000000396e+00 0.000000000000000000e+00 0.000000000000000000e+00 1.697000000000000015e-06 2.191734100000000041e+01
2.710269999999999957e+00 0.000000000000000000e+00 0.000000000000000000e+00 0.000000000000000000e+00 4.715327000000000268e+00 0.000000000000000000e+00 0.000000000000000000e+00 1.148999999999999926e-06 1.542390299999999925e+01
2.505722000000000005e+00 0.000000000000000000e+00 0.000000000000000000e+00 0.000000000000000000e+00 4.359454000000000384e+00 0.000000000000000000e+00 0.000000000000000000e+00 1.322000000000000006e-06 1.641077900000000156e+01
2.607995999999999981e+00 0.000000000000000000e+00 0.000000000000000000e+00 0.000000000000000000e+00 4.537391000000000396e+00 0.000000000000000000e+00 0.000000000000000000e+00 1.464000000000000086e-06 1.891734100000000041e+01
2.556859000000000215e+00 0.000000000000000000e+00 0.000000000000000000e+00 0.000000000000000000e+00 4.448421999999999876e+00 0.000000000000000000e+00 0.000000000000000000e+00 1.711000000000000008e-06 2.166405999999999921e+01
2.659133000000000191e+00 0.000000000000000000e+00 0.000000000000000000e+00 0.000000000000000000e+00 4.626358999999999888e+00 0.000000000000000000e+00 0.000000000000000000e+00 1.114000000000000049e-06 1.467062199999999983e+01
2.556859000000000215e+00 0.000000000000000000e+00 0.000000000000000000e+00 0.000000000000000000e+00 4.448421999999999876e+00 0.000000000000000000e+00 0.000000000000000000e+00 1.394999999999999985e-06 1.766405999999999921e+01
2.710269999999999957e+00 0.000000000000000000e+00 0.000000000000000000e+00 0.000000000000000000e+00 4.715327000000000268e+00 0.000000000000000000e+00 0.000000000000000000e+00 1.075000000000000084e-06 1.442390299999999925e+01
2.607995999999999981e+00 0.000000000000000000e+00 0.000000000000000000e+00 0.000000000000000000e+00 4.537391000000000396e+00 0.000000000000000000e+00 0.000000000000000000e+00 1.387000000000000019e-06 1.791734100000000041e+01
2.710269999999999957e+00 0.000000000000000000e+00 0.000000000000000000e+00 0.000000000000000000e+00 4.715327000000000268e+00 0.000000000000000000e+00 0.000000000000000000e+00 1.371999999999999951e-06 1.842390299999999925e+01
2.607995999999999981e+00 0.000000000000000000e+00 0.000000000000000000e+00 0.000000000000000000e+00 4.537391000000000396e+00 0.000000000000000000e+00 0.000000000000000000e+00 1.309999999999999951e-06 1.691734100000000041e+01
2.454584000000000099e+00 0.000000000000000000e+00 0.000000000000000000e+00 0.000000000000000000e+00 4.270484999999999864e+00 0.000000000000000000e+00 0.000000000000000000e+00 1.658000000000000050e-06 2.015749699999999933e+01
2.454584000000000099e+00 0.000000000000000000e+00 0.000000000000000000e+00 0.000000000000000000e+00 4.270484999999999864e+00 0.000000000000000000e+00 0.000000000000000000e+00 1.658000000000000050e-06 2.015749699999999933e+01
2.454584000000000099e+00 0.000000000000000000e+00 0.000000000000000000e+00 0.000000000000000000e+00 4.270484999999999864e+00 0.000000000000000000e+00 0.000000000000000000e+00 1.410999999999999916e-06 1.715749699999999933e+01
2.556859000000000215e+00 0.000000000000000000e+00 0.000000000000000000e+00 0.000000000000000000e+00 4.448421999999999876e+00 0.000000000000000000e+00 0.000000000000000000e+00 1.236999999999999973e-06 1.566405999999999921e+01
2.607995999999999981e+00 0.000000000000000000e+00 0.000000000000000000e+00 0.000000000000000000e+00 4.537391000000000396e+00 0.000000000000000000e+00 0.000000000000000000e+00 1.270999999999999986e-06 1.641734100000000041e+01
2.454584000000000099e+00 0.000000000000000000e+00 0.000000000000000000e+00 0.000000000000000000e+00 4.270484999999999864e+00 0.000000000000000000e+00 0.000000000000000000e+00 1.410999999999999916e-06 1.715749699999999933e+01
2.454584000000000099e+00 0.000000000000000000e+00 0.000000000000000000e+00 0.000000000000000000e+00 4.270484999999999864e+00 0.000000000000000000e+00 0.000000000000000000e+00 1.287999999999999993e-06 1.565749699999999933e+01
2.556859000000000215e+00 0.000000000000000000e+00 0.000000000000000000e+00 0.000000000000000000e+00 4.448421999999999876e+00 0.000000000000000000e+00 0.000000000000000000e+00 1.632000000000000002e-06 2.066405999999999921e+01
2.505722000000000005e+00 0.000000000000000000e+00 0.000000000000000000e+00 0.000000000000000000e+00 4.359454000000000384e+00 0.000000000000000000e+00 0.000000000000000000e+00 1.483999999999999895e-06 1.841077900000000156e+01
2.556859000000000215e+00 0.000000000000000000e+00 0.000000000000000000e+00 0.000000000000000000e+00 4.448421999999999876e+00 0.000000000000000000e+00 0.000000000000000000e+00 1.196999999999999932e-06 1.516405999999999921e+01
2.556859000000000215e+00 0.000000000000000000e+00 0.000000000000000000e+00 0.000000000000000000e+00 4.448421999999999876e+00 0.000000000000000000e+00 0.000000000000000000e+00 1.275999999999999938e-06 1.616405999999999921e+01
2.556859000000000215e+00 0.000000000000000000e+00 0.000000000000000000e+00 0.000000000000000000e+00 4.448421999999999876e+00 0.000000000000000000e+00 0.000000000000000000e+00 1.711000000000000008e-06 2.166405999999999921e+01
2.556859000000000215e+00 0.000000000000000000e+00 0.000000000000000000e+00 0.000000000000000000e+00 4.448421999999999876e+00 0.000000000000000000e+00 0.000000000000000000e+00 1.473999999999999990e-06 1.866405999999999921e+01
2.710269999999999957e+00 0.000000000000000000e+00 0.000000000000000000e+00 0.000000000000000000e+00 4.715327000000000268e+00 0.000000000000000000e+00 0.000000000000000000e+00 1.185999999999999953e-06 1.592390299999999925e+01
2.607995999999999981e+00 0.000000000000000000e+00 0.000000000000000000e+00 0.000000000000000000e+00 4.537391000000000396e+00 0.000000000000000000e+00 0.000000000000000000e+00 1.309999999999999951e-06 1.691734100000000041e+01
2.454584000000000099e+00 0.000000000000000000e+00 0.000000000000000000e+00 0.000000000000000000e+00 4.270484999999999864e+00 0.000000000000000000e+00 0.000000000000000000e+00 1.658000000000000050e-06 2.015749699999999933e+01
2.556859000000000215e+00 0.000000000000000000e+00 0.000000000000000000e+00 0.000000000000000000e+00 4.448421999999999876e+00 0.000000000000000000e+00 0.000000000000000000e+00 1.196999999999999932e-06 1.516405999999999921e+01
2.505722000000000005e+00 0.000000000000000000e+00 0.000000000000000000e+00 0.000000000000000000e+00 4.359454000000000384e+00 0.000000000000000000e+00 0.000000000000000000e+00 1.322000000000000006e-06 1.641077900000000156e+01
2.454584000000000099e+00 0.000000000000000000e+00 0.000000000000000000e+00 0.000000000000000000e+00 4.270484999999999864e+00 0.000000000000000000e+00 0.000000000000000000e+00 1.287999999999999993e-06 1.565749699999999933e+01
2.659133000000000191e+00 0.000000000000000000e+00 0.000000000000000000e+00 0.000000000000000000e+00 4.626358999999999888e+00 0.000000000000000000e+00 0.000000000000000000e+00 1.190000000000000041e-06 1.567062199999999983e+01
2.505722000000000005e+00 0.000000000000000000e+00 0.000000000000000000e+00 0.000000000000000000e+00 4.359454000000000384e+00 0.000000000000000000e+00 0.000000000000000000e+00 1.281999999999999965e-06 1.591077899999999978e+01
2.710269999999999957e+00 0.000000000000000000e+00 0.000000000000000000e+00 0.000000000000000000e+00 4.715327000000000268e+00 0.000000000000000000e+00 0.000000000000000000e+00 1.185999999999999953e-06 1.592390299999999925e+01
2.659133000000000191e+00 0.000000000000000000e+00 0.000000000000000000e+00 0.000000000000000000e+00 4.626358999999999888e+00 0.000000000000000000e+00 0.000000000000000000e+00 1.607000000000000030e-06 2.117062200000000161e+01
2.505722000000000005e+00 0.000000000000000000e+00 0.000000000000000000e+00 0.000000000000000000e+00 4.359454000000000384e+00 0.000000000000000000e+00 0.000000000000000000e+00 1.725000000000000001e-06 2.141077900000000156e+01
2.607995999999999981e+00 0.000000000000000000e+00 0.000000000000000000e+00 0.000000000000000000e+00 4.537391000000000396e+00 0.000000000000000000e+00 0.000000000000000000e+00 1.232000000000000020e-06 1.591734100000000041e+01
2.454584000000000099e+00 0.000000000000000000e+00 0.000000000000000000e+00 0.000000000000000000e+00 4.270484999999999864e+00 0.000000000000000000e+00 0.000000000000000000e+00 1.328999999999999896e-06 1.615749699999999933e+01
2.556859000000000215e+00 0.000000000000000000e+00 0.000000000000000000e+00 0.000000000000000000e+00 4.448421999999999876e+00 0.000000000000000000e+00 0.000000000000000000e+00 1.552999999999999996e-06 1.966405999999999921e+01
2.607995999999999981e+00 0.000000000000000000e+00 0.000000000000000000e+00 0.000000000000000000e+00 4.537391000000000396e+00 0.000000000000000000e+00 0.000000000000000000e+00 1.542000000000000017e-06 1.991734100000000041e+01
