3.722760000000000069e+00 1.785800000000000054e+00 3.614809999999999857e+00 1.398649999999999949e+00 1.933499999999999996e+00 8.422739999999999227e+00 3.695329999999999782e+00 1.770529999999999937e+00 1.182099999999999929e+00 2.581039999999999779e+00 3.604769999999999808e+00 7.147820000000000285e+00 3.495000000000000190e-02 3.570269999999999833e+00 4.759019999999999584e+00 2.614669999999999828e+00 1.640600000000000114e-01 4.811659999999999826e+00 2.544350000000000112e+00 8.734999999999999709e-02 2.407430000000000181e+00 2.066000000000000059e-01 2.711100000000000176e-01 7.176140000000000185e+00 3.260500000000000065e-01 3.879020000000000135e+00 1.534803999999999924e+01 4.878820000000000157e+00 3.495480000000000143e+00 2.455480000000000107e+00 2.900749999999999940e+00 4.788100000000000134e-01 1.531497000000000064e+01 1.165019999999999945e+00 1.725419999999999954e+00 1.140609999999999902e+00 3.823589999999999822e+00 1.927610000000000046e+00 8.385120000000000573e+00 3.796009999999999884e+00 1.893259999999999943e+00 5.950440000000000396e+00 1.324559999999999960e+00 1.920260000000000078e+00 5.984539999999999971e+00 1.329450000000000021e+00 1.844449999999999923e+00 3.654819999999999958e+00
-6.779999999999999569e-03 6.930000000000000396e-03 2.410330000000000084e+00 3.403849999999999820e+00 1.683089999999999975e+00 8.656040000000000845e+00 1.197659999999999947e+00 1.708099999999999952e+00 1.230699999999999905e+00 3.407570000000000210e+00 1.667920000000000069e+00 3.714269999999999960e+00 2.253659999999999997e+00 3.395840000000000192e+00 7.239919999999999689e+00 4.602540000000000298e+00 6.458999999999999464e-02 5.007839999999999847e+00 2.363939999999999930e+00 6.729999999999999871e-03 2.375249999999999861e+00 9.235200000000000076e-01 1.767740000000000089e+00 8.532299999999999329e+00 -1.978399999999999881e-01 3.385839999999999961e+00 7.291159999999999641e+00 3.481469999999999843e+00 1.699889999999999901e+00 6.019739999999999647e+00 4.492259999999999920e+00 4.866000000000000186e-02 1.016356000000000037e+01 2.132080000000000197e+00 3.368300000000000072e+00 4.956690000000000040e+00 1.068899999999999961e+00 1.676700000000000079e+00 3.685919999999999863e+00 2.100420000000000176e+00 3.415750000000000064e+00 9.964000000000000412e+00 3.561650000000000205e+00 1.760969999999999924e+00 1.192390000000000061e+00 1.007770000000000055e+00 1.670120000000000049e+00 6.075689999999999813e+00
-1.014000000000000040e-01 3.410359999999999836e+00 2.427010000000000112e+00 3.356660000000000199e+00 1.709330000000000016e+00 8.507590000000000430e+00 1.156500000000000083e+00 1.706450000000000022e+00 1.215969999999999995e+00 3.498839999999999950e+00 1.705440000000000067e+00 3.646240000000000148e+00 2.197849999999999859e+00 4.349999999999999700e-03 7.294220000000000148e+00 4.655879999999999797e+00 3.413190000000000168e+00 4.862650000000000361e+00 2.317419999999999813e+00 3.410280000000000200e+00 2.432300000000000129e+00 9.421899999999999720e-01 1.706900000000000084e+00 8.509119999999999351e+00 -2.453299999999999925e-01 3.409330000000000194e+00 7.299879999999999924e+00 3.428720000000000212e+00 1.718329999999999913e+00 6.080149999999999721e+00 4.797909999999999897e+00 3.407369999999999788e+00 7.139999999999999646e-03 2.237460000000000004e+00 3.413209999999999855e+00 4.864010000000000389e+00 1.083050000000000068e+00 1.708520000000000039e+00 3.644810000000000105e+00 2.117680000000000007e+00 1.008000000000000042e-02 1.021490000000000009e+01 3.579619999999999802e+00 1.702369999999999939e+00 1.212199999999999944e+00 1.010620000000000074e+00 1.708269999999999955e+00 6.077580000000000204e+00
-4.329000000000000209e-02 9.650000000000000591e-03 2.477599999999999802e+00 3.404840000000000089e+00 1.716909999999999936e+00 8.631990000000000052e+00 1.214050000000000074e+00 1.705480000000000107e+00 1.209130000000000038e+00 3.447599999999999998e+00 1.711810000000000054e+00 3.646749999999999936e+00 2.194020000000000081e+00 3.365009999999999835e+00 7.257959999999999745e+00 4.586700000000000443e+00 3.392360000000000042e+00 4.890850000000000364e+00 2.351189999999999891e+00 9.480000000000000579e-03 2.355420000000000069e+00 1.001440000000000108e+00 1.711729999999999974e+00 8.665710000000000690e+00 -1.917699999999999960e-01 2.103000000000000008e-02 7.379730000000000345e+00 3.391750000000000043e+00 1.659100000000000019e+00 6.104700000000000237e+00 4.489239999999999675e+00 3.394950000000000134e+00 1.002551000000000059e+01 2.214189999999999880e+00 3.067999999999999894e-02 4.856010000000000382e+00 1.061309999999999976e+00 1.713759999999999950e+00 3.634609999999999896e+00 2.124559999999999782e+00 6.883999999999999841e-02 1.002769999999999939e+01 3.632709999999999884e+00 1.676460000000000061e+00 1.296820000000000084e+00 9.463899999999999535e-01 1.728979999999999961e+00 6.055349999999999788e+00
1.171969999999999956e+00 1.723119999999999985e+00 8.590439999999999188e+00 2.397299999999999986e+00 -1.392999999999999967e-02 4.868050000000000210e+00 2.463519999999999932e+00 3.100579999999999892e+00 1.299510000000000076e+01 1.419100000000000084e-01 -1.353699999999999903e-01 7.245180000000000398e+00 -7.025000000000000688e-02 3.388259999999999827e+00 2.420619999999999994e+00 3.759889999999999954e+00 1.543369999999999909e+00 8.483019999999999783e+00 1.187510000000000066e+00 1.630840000000000067e+00 6.156279999999999752e+00 4.799699999999999633e+00 -3.050999999999999893e-02 4.803729999999999833e+00 3.586899999999999977e+00 1.535269999999999913e+00 6.157460000000000377e+00 2.411630000000000162e+00 3.258329999999999949e+00 7.434899999999999842e+00 3.648909999999999876e+00 1.703710000000000058e+00 1.010629999999999917e+00 1.200169999999999959e+00 1.745949999999999891e+00 9.937200000000000477e-01 3.658799999999999830e+00 1.679040000000000088e+00 3.616480000000000139e+00 1.153419999999999890e+00 1.634880000000000111e+00 3.717260000000000009e+00 4.193000000000000199e-02 3.087209999999999788e+00 1.284650000000000070e+01 2.328180000000000138e+00 3.362210000000000143e+00 2.466680000000000206e+00
-6.199000000000000343e-02 5.809999999999999887e-02 2.150529999999999831e+00 3.319069999999999965e+00 1.731670000000000043e+00 8.833389999999999631e+00 1.128800000000000026e+00 1.694900000000000073e+00 1.141550000000000065e+00 3.616470000000000073e+00 1.737139999999999906e+00 3.485770000000000035e+00 2.181970000000000187e+00 3.404090000000000060e+00 7.522380000000000067e+00 -1.165899999999999992e-01 3.356850000000000112e+00 5.123920000000000030e+00 2.345769999999999911e+00 4.150000000000000216e-02 2.133420000000000094e+00 9.050200000000000466e-01 1.606680000000000108e+00 8.785500000000000753e+00 4.585930000000000284e+00 9.554999999999999605e-02 7.552590000000000359e+00 3.338519999999999932e+00 1.718299999999999939e+00 6.207939999999999792e+00 4.499520000000000408e+00 3.346839999999999815e+00 1.002657999999999916e+01 2.297410000000000174e+00 5.007000000000000339e-02 4.891930000000000334e+00 1.131280000000000063e+00 1.666209999999999969e+00 3.478219999999999867e+00 2.088350000000000151e+00 3.386050000000000004e+00 1.000549999999999962e+01 3.554009999999999891e+00 1.674989999999999979e+00 9.771100000000000341e-01 9.791199999999999903e-01 1.758170000000000011e+00 6.199530000000000207e+00
9.399999999999999719e-04 2.126000000000000112e-02 2.253530000000000033e+00 3.243809999999999860e+00 1.762580000000000036e+00 8.779840000000000089e+00 1.166740000000000110e+00 1.740550000000000042e+00 8.791600000000000525e-01 3.514019999999999921e+00 1.717980000000000063e+00 3.709319999999999951e+00 2.122230000000000061e+00 3.367179999999999840e+00 7.539520000000000444e+00 -1.664599999999999969e-01 3.399049999999999905e+00 4.838549999999999685e+00 2.452510000000000190e+00 3.378249999999999975e+00 2.219899999999999984e+00 8.326500000000000012e-01 1.715489999999999959e+00 8.838960000000000150e+00 4.572300000000000253e+00 4.530000000000000172e-03 7.606419999999999959e+00 3.452020000000000088e+00 1.706650000000000000e+00 6.285580000000000389e+00 4.492580000000000240e+00 1.490999999999999964e-02 9.993209999999999482e+00 2.244899999999999896e+00 3.376339999999999897e+00 4.905330000000000190e+00 1.135429999999999939e+00 1.641909999999999981e+00 3.615240000000000009e+00 2.040929999999999911e+00 3.157999999999999696e-02 9.982229999999999492e+00 3.682549999999999990e+00 1.767090000000000050e+00 8.680600000000000538e-01 1.005489999999999995e+00 1.681810000000000027e+00 6.200980000000000381e+00
-2.248999999999999957e-02 1.799999999999999951e-03 2.515299999999999869e+00 3.357670000000000154e+00 1.743409999999999904e+00 8.686220000000000496e+00 1.260320000000000107e+00 1.753870000000000040e+00 1.090049999999999963e+00 3.492440000000000211e+00 1.733340000000000103e+00 3.721400000000000041e+00 2.205020000000000202e+00 3.338709999999999845e+00 7.432170000000000165e+00 4.633359999999999701e+00 2.689000000000000071e-02 4.845229999999999926e+00 2.418670000000000098e+00 2.529999999999999957e-02 2.548049999999999926e+00 8.654800000000000271e-01 1.622740000000000071e+00 8.673740000000000450e+00 4.589349999999999596e+00 7.740000000000000352e-03 7.389260000000000161e+00 3.437240000000000073e+00 1.597550000000000026e+00 6.061709999999999710e+00 -2.839700000000000002e-01 6.170000000000000137e-03 1.001210000000000022e+01 2.164960000000000218e+00 3.531000000000000111e-02 4.799629999999999619e+00 1.067949999999999955e+00 1.743430000000000035e+00 3.654230000000000089e+00 2.104519999999999946e+00 6.532000000000000306e-02 9.942090000000000316e+00 3.591579999999999995e+00 1.672520000000000007e+00 1.069399999999999906e+00 1.007430000000000048e+00 1.720310000000000006e+00 6.075249999999999595e+00
3.775990000000000180e+00 1.850700000000000012e+00 3.568290000000000184e+00 1.432420000000000027e+00 1.896849999999999925e+00 8.408459999999999823e+00 3.640899999999999803e+00 1.787269999999999914e+00 1.098530000000000006e+00 2.668400000000000105e+00 2.081199999999999994e-01 7.230879999999999974e+00 5.044319999999999915e+00 1.799800000000000011e-01 4.807479999999999976e+00 2.448360000000000092e+00 3.559050000000000047e+00 4.752819999999999823e+00 2.483089999999999797e+00 7.259000000000000175e-02 2.411960000000000104e+00 2.437400000000000122e-01 2.095499999999999863e-01 7.164559999999999818e+00 4.913710000000000022e+00 1.770000000000000089e-03 2.609999999999999907e-03 4.857079999999999842e+00 3.438530000000000086e+00 2.405879999999999797e+00 2.546600000000000197e+00 3.570000000000000256e-02 4.709999999999999777e-03 1.225249999999999950e+00 1.681459999999999955e+00 1.135850000000000026e+00 3.815920000000000201e+00 2.006200000000000205e+00 8.425959999999999894e+00 3.901470000000000216e+00 1.909340000000000037e+00 5.965040000000000120e+00 1.346859999999999946e+00 1.942660000000000053e+00 5.955470000000000041e+00 1.266860000000000097e+00 1.801460000000000061e+00 3.613970000000000127e+00
1.232890000000000041e+00 1.559620000000000006e+00 8.448159999999999670e+00 2.470540000000000180e+00 -9.039999999999999425e-02 4.831879999999999953e+00 2.534390000000000143e+00 -2.505100000000000104e-01 1.309110000000000085e+01 -4.118999999999999745e-02 3.306029999999999802e+00 7.243280000000000385e+00 -7.928000000000000325e-02 3.399509999999999810e+00 2.413040000000000074e+00 3.660390000000000033e+00 1.565339999999999954e+00 8.451810000000000045e+00 1.212779999999999969e+00 1.604770000000000030e+00 6.034349999999999881e+00 4.900900000000000034e+00 -9.085000000000000020e-02 4.832919999999999661e+00 3.647759999999999891e+00 1.611599999999999921e+00 6.038179999999999659e+00 2.487109999999999932e+00 -1.392200000000000104e-01 7.242810000000000414e+00 3.612439999999999873e+00 1.691610000000000058e+00 1.210609999999999964e+00 1.171010000000000106e+00 1.695140000000000091e+00 1.207549999999999901e+00 3.624760000000000204e+00 1.651589999999999892e+00 3.625960000000000072e+00 1.193219999999999947e+00 1.653699999999999948e+00 3.622069999999999901e+00 1.000999999999999945e-01 -2.510299999999999754e-01 1.309370000000000012e+01 2.451109999999999900e+00 -4.263000000000000123e-02 2.418499999999999872e+00
1.232890000000000041e+00 1.559620000000000006e+00 8.448159999999999670e+00 2.470540000000000180e+00 -9.039999999999999425e-02 4.831879999999999953e+00 2.534390000000000143e+00 -2.505100000000000104e-01 1.309110000000000085e+01 -4.118999999999999745e-02 3.306029999999999802e+00 7.243280000000000385e+00 -7.928000000000000325e-02 3.399509999999999810e+00 2.413040000000000074e+00 3.660390000000000033e+00 1.565339999999999954e+00 8.451810000000000045e+00 1.212779999999999969e+00 1.604770000000000030e+00 6.034349999999999881e+00 4.900900000000000034e+00 -9.085000000000000020e-02 4.832919999999999661e+00 3.647759999999999891e+00 1.611599999999999921e+00 6.038179999999999659e+00 2.487109999999999932e+00 -1.392200000000000104e-01 7.242810000000000414e+00 3.612439999999999873e+00 1.691610000000000058e+00 1.210609999999999964e+00 1.171010000000000106e+00 1.695140000000000091e+00 1.207549999999999901e+00 3.624760000000000204e+00 1.651589999999999892e+00 3.625960000000000072e+00 1.193219999999999947e+00 1.653699999999999948e+00 3.622069999999999901e+00 1.000999999999999945e-01 -2.510299999999999754e-01 1.309370000000000012e+01 2.451109999999999900e+00 -4.263000000000000123e-02 2.418499999999999872e+00
2.597379999999999800e+00 3.426140000000000185e+00 2.416090000000000071e+00 1.528599999999999959e-01 8.173999999999999322e-02 4.979149999999999743e+00 1.447230000000000016e+00 1.890530000000000044e+00 8.743650000000000588e+00 1.352780000000000094e+00 1.833350000000000035e+00 6.179330000000000211e+00 6.361999999999999600e-02 2.423000000000000154e-02 1.659000000000000058e-02 3.876189999999999802e+00 1.772059999999999969e+00 6.163499999999999979e+00 1.911899999999999988e-01 3.445930000000000160e+00 2.450499999999999901e+00 1.319809999999999928e+00 1.733810000000000073e+00 1.254119999999999902e+00 3.688200000000000145e+00 1.731130000000000058e+00 3.659819999999999851e+00 3.714339999999999975e+00 1.692609999999999948e+00 1.234040000000000026e+00 3.878979999999999873e+00 1.845190000000000108e+00 8.653950000000000031e+00 2.578460000000000196e+00 1.142900000000000027e-01 4.994460000000000122e+00 2.575619999999999798e+00 1.658399999999999874e-01 7.397829999999999906e+00 2.889720000000000066e+00 3.561099999999999821e-01 1.689537999999999940e+01 1.345970000000000111e+00 1.774350000000000094e+00 3.777620000000000200e+00 3.475900000000000101e-01 3.490289999999999893e+00 7.407060000000000421e+00
2.692180000000000017e+00 3.423659999999999926e+00 2.480430000000000135e+00 4.833969999999999878e+00 1.289399999999999991e-01 4.903909999999999769e+00 1.149170000000000025e+00 1.951480000000000103e+00 8.774409999999999599e+00 1.210290000000000088e+00 1.886300000000000088e+00 6.232240000000000002e+00 1.012520000000000087e+00 3.673869999999999969e+00 1.677919999999999945e+01 3.709499999999999797e+00 1.839650000000000007e+00 6.304389999999999716e+00 2.566700000000000093e-01 3.407039999999999846e+00 2.442639999999999922e+00 1.620929999999999982e+00 1.711940000000000017e+00 1.072279999999999900e+00 3.859399999999999942e+00 1.738369999999999971e+00 3.624039999999999928e+00 3.872450000000000170e+00 1.677839999999999998e+00 1.174930000000000030e+00 3.530009999999999870e+00 1.845020000000000104e+00 8.864029999999999632e+00 2.510289999999999910e+00 3.455659999999999954e+00 4.967209999999999681e+00 2.352160000000000029e+00 2.187800000000000022e-01 7.603749999999999787e+00 3.444360000000000088e+00 3.678129999999999900e+00 1.674200000000000088e+01 1.466190000000000104e+00 1.726469999999999949e+00 3.606320000000000192e+00 4.794539999999999580e+00 1.365699999999999970e-01 7.591330000000000133e+00
-1.014000000000000040e-01 3.410359999999999836e+00 2.427010000000000112e+00 3.356660000000000199e+00 1.709330000000000016e+00 8.507590000000000430e+00 1.156500000000000083e+00 1.706450000000000022e+00 1.215969999999999995e+00 3.498839999999999950e+00 1.705440000000000067e+00 3.646240000000000148e+00 2.197849999999999859e+00 4.349999999999999700e-03 7.294220000000000148e+00 4.655879999999999797e+00 3.413190000000000168e+00 4.862650000000000361e+00 2.317419999999999813e+00 3.410280000000000200e+00 2.432300000000000129e+00 9.421899999999999720e-01 1.706900000000000084e+00 8.509119999999999351e+00 -2.453299999999999925e-01 3.409330000000000194e+00 7.299879999999999924e+00 3.428720000000000212e+00 1.718329999999999913e+00 6.080149999999999721e+00 4.797909999999999897e+00 3.407369999999999788e+00 7.139999999999999646e-03 2.237460000000000004e+00 3.413209999999999855e+00 4.864010000000000389e+00 1.083050000000000068e+00 1.708520000000000039e+00 3.644810000000000105e+00 2.117680000000000007e+00 1.008000000000000042e-02 1.021490000000000009e+01 3.579619999999999802e+00 1.702369999999999939e+00 1.212199999999999944e+00 1.010620000000000074e+00 1.708269999999999955e+00 6.077580000000000204e+00
4.740669999999999717e+00 1.310000000000000053e-02 2.540039999999999853e+00 3.354429999999999801e+00 1.740059999999999940e+00 8.693860000000000809e+00 1.117620000000000058e+00 1.755730000000000013e+00 1.138020000000000032e+00 3.579950000000000188e+00 1.738289999999999891e+00 3.622139999999999915e+00 2.171930000000000138e+00 3.382670000000000066e+00 7.350719999999999921e+00 -1.182200000000000056e-01 1.259000000000000050e-02 4.894459999999999589e+00 2.360910000000000064e+00 2.687000000000000152e-02 2.608260000000000023e+00 9.301599999999999868e-01 1.688739999999999908e+00 8.622059999999999391e+00 4.550239999999999618e+00 2.245000000000000120e-02 7.355129999999999946e+00 3.417040000000000077e+00 1.724150000000000071e+00 6.009850000000000136e+00 -3.238800000000000012e-01 3.338229999999999809e+00 1.001218000000000075e+01 2.300479999999999858e+00 3.445999999999999758e-02 4.863529999999999909e+00 1.107180000000000053e+00 1.793670000000000098e+00 3.645589999999999886e+00 2.025170000000000137e+00 3.323949999999999960e+00 9.944350000000000023e+00 3.609370000000000189e+00 1.617779999999999996e+00 1.127250000000000085e+00 1.001880000000000104e+00 1.703500000000000014e+00 6.088400000000000034e+00
2.673760000000000137e+00 3.333740000000000148e+00 2.433300000000000018e+00 4.911010000000000097e+00 1.453000000000000125e-01 4.997329999999999828e+00 1.112400000000000055e+00 1.904910000000000103e+00 8.781719999999999970e+00 1.333190000000000097e+00 1.819469999999999921e+00 6.332040000000000113e+00 1.002510000000000012e+00 3.677519999999999900e+00 1.681340000000000146e+01 3.679230000000000000e+00 1.779779999999999918e+00 6.128519999999999968e+00 3.616099999999999870e-01 3.412889999999999979e+00 2.383360000000000145e+00 1.442939999999999889e+00 1.705289999999999973e+00 1.140379999999999949e+00 3.868529999999999802e+00 1.728769999999999918e+00 3.655670000000000197e+00 3.982450000000000045e+00 1.734029999999999960e+00 1.115860000000000074e+00 3.586460000000000203e+00 1.869990000000000041e+00 8.762449999999999406e+00 2.503890000000000171e+00 1.401900000000000091e-01 4.974579999999999558e+00 2.317909999999999915e+00 1.663600000000000079e-01 7.535980000000000345e+00 3.276639999999999997e+00 3.679899999999999838e-01 1.681459999999999866e+01 1.426299999999999901e+00 1.730310000000000015e+00 3.738070000000000004e+00 4.645179999999999865e+00 1.322500000000000064e-01 7.555810000000000137e+00
4.695739999999999803e+00 3.395939999999999959e+00 2.484669999999999934e+00 3.378019999999999801e+00 1.714530000000000109e+00 8.757049999999999557e+00 1.191040000000000099e+00 1.733030000000000070e+00 1.094959999999999933e+00 3.512919999999999821e+00 1.700800000000000090e+00 3.630380000000000162e+00 2.081550000000000011e+00 3.387640000000000207e+00 7.377880000000000216e+00 4.658070000000000377e+00 3.357340000000000213e+00 4.820800000000000196e+00 2.242649999999999810e+00 3.406839999999999868e+00 2.533999999999999808e+00 1.047090000000000076e+00 1.721549999999999914e+00 8.847009999999999152e+00 4.548169999999999824e+00 3.403570000000000206e+00 7.301070000000000171e+00 3.387109999999999843e+00 1.751649999999999929e+00 6.037480000000000402e+00 -2.759400000000000186e-01 7.534000000000000419e-02 9.946490000000000720e+00 2.283990000000000187e+00 3.411680000000000046e+00 4.846000000000000085e+00 1.078940000000000010e+00 1.658029999999999893e+00 3.717060000000000031e+00 2.115219999999999878e+00 3.400669999999999860e+00 9.950150000000000716e+00 3.588659999999999961e+00 1.769830000000000014e+00 1.158290000000000042e+00 9.975899999999999768e-01 1.671459999999999946e+00 6.012559999999999683e+00
3.737460000000000004e+00 1.832950000000000079e+00 3.562879999999999825e+00 1.433040000000000092e+00 1.869639999999999969e+00 8.501049999999999329e+00 3.648060000000000080e+00 1.793560000000000043e+00 1.066089999999999982e+00 2.564630000000000187e+00 3.634959999999999969e+00 7.253180000000000405e+00 4.941499999999999559e+00 3.559930000000000039e+00 4.735839999999999606e+00 2.548329999999999984e+00 1.537100000000000133e-01 4.792900000000000382e+00 2.502400000000000180e+00 1.235399999999999970e-01 2.401100000000000012e+00 2.068099999999999938e-01 2.231400000000000050e-01 7.339959999999999596e+00 4.592600000000000016e-01 4.532800000000000162e-01 1.522169000000000061e+01 -1.779000000000000026e-02 3.506689999999999863e+00 2.297620000000000218e+00 2.833140000000000214e+00 3.862060000000000048e+00 1.528576999999999941e+01 1.184779999999999944e+00 1.762329999999999952e+00 1.089970000000000105e+00 3.898379999999999956e+00 1.939310000000000089e+00 8.514359999999999928e+00 3.827599999999999891e+00 1.872770000000000046e+00 6.058729999999999727e+00 1.285590000000000011e+00 1.896789999999999976e+00 6.046649999999999636e+00 1.289420000000000011e+00 1.867050000000000098e+00 3.587959999999999816e+00
-3.518000000000000294e-02 3.376090000000000035e+00 2.130910000000000082e+00 3.359449999999999825e+00 1.734070000000000000e+00 8.763579999999999259e+00 1.180879999999999930e+00 1.702879999999999949e+00 1.007339999999999902e+00 3.482680000000000220e+00 1.757889999999999953e+00 3.540900000000000158e+00 2.166739999999999888e+00 3.350369999999999848e+00 7.543029999999999902e+00 4.557400000000000340e+00 3.398699999999999832e+00 5.018950000000000244e+00 2.317159999999999886e+00 3.389369999999999994e+00 2.103909999999999947e+00 9.379699999999999704e-01 1.673119999999999941e+00 8.731749999999999901e+00 -2.139199999999999990e-01 4.868999999999999717e-02 7.558489999999999931e+00 3.450289999999999857e+00 1.649029999999999996e+00 6.317590000000000039e+00 4.445750000000000313e+00 3.359729999999999883e+00 1.007624000000000031e+01 2.160010000000000208e+00 3.896000000000000157e-02 4.891949999999999577e+00 1.146050000000000013e+00 1.725700000000000012e+00 3.492859999999999854e+00 2.132280000000000175e+00 2.291999999999999940e-02 1.006630000000000003e+01 3.664909999999999890e+00 1.711300000000000043e+00 9.621199999999999752e-01 1.007870000000000044e+00 1.799250000000000016e+00 6.309949999999999726e+00
4.735059999999999825e+00 3.066999999999999935e-02 2.306470000000000020e+00 3.461539999999999839e+00 1.665450000000000097e+00 8.658530000000000726e+00 1.226690000000000058e+00 1.737249999999999961e+00 1.270459999999999923e+00 3.426289999999999836e+00 1.720539999999999958e+00 3.686300000000000132e+00 2.140050000000000008e+00 1.178499999999999964e-01 7.324959999999999916e+00 4.622119999999999784e+00 3.356539999999999857e+00 4.945750000000000313e+00 2.246919999999999806e+00 1.102999999999999987e-02 2.517999999999999794e+00 1.021039999999999948e+00 1.742150000000000087e+00 8.607910000000000394e+00 4.546710000000000029e+00 3.355080000000000062e+00 7.257200000000000095e+00 3.353520000000000056e+00 1.758170000000000011e+00 6.088090000000000224e+00 -2.012899999999999967e-01 5.729999999999999850e-03 9.963870000000000005e+00 2.187590000000000146e+00 3.372059999999999835e+00 4.993120000000000225e+00 1.039740000000000109e+00 1.698499999999999899e+00 3.626510000000000122e+00 2.268679999999999808e+00 3.311630000000000074e+00 9.924179999999999779e+00 3.643930000000000113e+00 1.770620000000000083e+00 1.241959999999999953e+00 9.091099999999999737e-01 1.673880000000000035e+00 6.102549999999999919e+00
-4.225999999999999895e-02 2.089999999999999844e-03 2.374109999999999943e+00 3.321499999999999897e+00 1.725740000000000052e+00 8.567019999999999413e+00 1.158539999999999903e+00 1.689659999999999940e+00 1.249579999999999913e+00 3.603289999999999882e+00 1.725039999999999907e+00 3.636420000000000208e+00 2.055379999999999985e+00 3.411309999999999842e+00 7.339290000000000092e+00 -9.786000000000000254e-02 6.139999999999999625e-03 4.833000000000000185e+00 2.342569999999999819e+00 9.849999999999999381e-03 2.430849999999999955e+00 8.792499999999999760e-01 1.679650000000000087e+00 8.660869999999999180e+00 4.549730000000000274e+00 3.334999999999999770e-02 7.329830000000000290e+00 3.400370000000000115e+00 1.718099999999999961e+00 6.141339999999999577e+00 4.457779999999999632e+00 3.372459999999999791e+00 1.001661000000000001e+01 2.378410000000000135e+00 2.198999999999999913e-02 4.863800000000000345e+00 1.152730000000000032e+00 1.731849999999999890e+00 3.702370000000000161e+00 2.082100000000000062e+00 3.408879999999999910e+00 1.002919999999999945e+01 3.611310000000000020e+00 1.670500000000000096e+00 1.279449999999999976e+00 9.720900000000000096e-01 1.709619999999999918e+00 6.062070000000000292e+00
2.666300000000000114e+00 3.353390000000000093e+00 2.478509999999999991e+00 4.858050000000000423e+00 1.805100000000000038e-01 4.938150000000000261e+00 1.110230000000000050e+00 1.943419999999999925e+00 8.747960000000000846e+00 1.271819999999999951e+00 1.841990000000000016e+00 6.297889999999999766e+00 1.022399999999999975e+00 3.668489999999999807e+00 1.681380000000000052e+01 3.711790000000000145e+00 1.787830000000000030e+00 6.206500000000000128e+00 3.122500000000000275e-01 3.400700000000000056e+00 2.423389999999999933e+00 1.518420000000000103e+00 1.720499999999999918e+00 1.117729999999999890e+00 3.889730000000000132e+00 1.717619999999999925e+00 3.628169999999999895e+00 3.929479999999999862e+00 1.707240000000000091e+00 1.169380000000000086e+00 3.571870000000000100e+00 1.853520000000000056e+00 8.797750000000000625e+00 2.447769999999999779e+00 1.027700000000000002e-01 4.963000000000000078e+00 2.324440000000000062e+00 2.138599999999999945e-01 7.557210000000000427e+00 3.317450000000000010e+00 3.169899999999999940e-01 1.678719999999999857e+01 1.451470000000000038e+00 1.716620000000000035e+00 3.661690000000000111e+00 4.720509999999999984e+00 1.233400000000000052e-01 7.574760000000000382e+00
-2.739999999999999814e-03 1.660999999999999976e-02 2.492649999999999810e+00 3.271319999999999784e+00 1.722699999999999898e+00 8.676949999999999719e+00 1.098090000000000011e+00 1.719729999999999981e+00 1.041630000000000056e+00 3.543130000000000113e+00 1.717689999999999939e+00 3.767160000000000064e+00 2.171260000000000190e+00 3.338769999999999794e+00 7.306750000000000078e+00 -5.013999999999999707e-02 2.794999999999999915e-02 4.808709999999999596e+00 2.352500000000000036e+00 1.529999999999999893e-03 2.545519999999999783e+00 8.421699999999999742e-01 1.644030000000000102e+00 8.632709999999999440e+00 -2.414499999999999980e-01 3.375440000000000218e+00 7.345379999999999576e+00 3.413199999999999790e+00 1.731689999999999952e+00 6.083820000000000228e+00 4.433519999999999683e+00 3.413839999999999986e+00 1.007887999999999984e+01 2.377359999999999918e+00 5.210000000000000221e-03 4.851650000000000240e+00 1.188239999999999963e+00 1.768780000000000019e+00 3.751739999999999853e+00 2.131219999999999892e+00 3.175000000000000044e-02 1.003679999999999950e+01 3.520049999999999901e+00 1.718590000000000062e+00 1.058699999999999974e+00 9.421599999999999975e-01 1.681920000000000082e+00 6.036760000000000126e+00
1.232890000000000041e+00 1.559620000000000006e+00 8.448159999999999670e+00 2.470540000000000180e+00 -9.039999999999999425e-02 4.831879999999999953e+00 2.534390000000000143e+00 -2.505100000000000104e-01 1.309110000000000085e+01 -4.118999999999999745e-02 3.306029999999999802e+00 7.243280000000000385e+00 -7.928000000000000325e-02 3.399509999999999810e+00 2.413040000000000074e+00 3.660390000000000033e+00 1.565339999999999954e+00 8.451810000000000045e+00 1.212779999999999969e+00 1.604770000000000030e+00 6.034349999999999881e+00 4.900900000000000034e+00 -9.085000000000000020e-02 4.832919999999999661e+00 3.647759999999999891e+00 1.611599999999999921e+00 6.038179999999999659e+00 2.487109999999999932e+00 -1.392200000000000104e-01 7.242810000000000414e+00 3.612439999999999873e+00 1.691610000000000058e+00 1.210609999999999964e+00 1.171010000000000106e+00 1.695140000000000091e+00 1.207549999999999901e+00 3.624760000000000204e+00 1.651589999999999892e+00 3.625960000000000072e+00 1.193219999999999947e+00 1.653699999999999948e+00 3.622069999999999901e+00 1.000999999999999945e-01 -2.510299999999999754e-01 1.309370000000000012e+01 2.451109999999999900e+00 -4.263000000000000123e-02 2.418499999999999872e+00