5.285250000000000226e-01 5.970050000000000079e-01 -5.701040000000000552e-01 -1.844169999999999976e-01 3.753000000000000086e-02 6.631390000000000340e-01 -3.145439999999999903e-01 -2.353399999999999936e-02 -9.499060000000000281e-01 -1.273239999999999927e-01 3.697010000000000018e-01 1.467619999999999925e+00 1.272760000000000002e-01 1.489020000000000066e-01 6.380909999999999638e-01 -3.814139999999999753e-01 -4.384509999999999796e-01 -1.168619999999999937e-01 -5.593749999999999556e-01 -3.069109999999999894e-01 -6.188379999999999992e-01 -3.372310000000000030e-01 -8.896049999999999791e-01 1.128729000000000093e+00 9.168000000000000801e-03 1.734360000000000068e-01 -6.588519999999999932e-01 5.310690000000000133e-01 1.179810000000000025e-01 -9.644479999999999720e-01 -1.428169999999999995e-01 -7.048400000000000498e-02 -3.437299999999999800e-01 6.745510000000000117e-01 3.918559999999999821e-01 -4.172299999999999898e-01 3.014769999999999950e-01 4.437699999999999978e-02 7.133699999999999486e-01 3.247110000000000274e-01 8.893399999999999916e-02 6.720019999999999882e-01 7.422700000000000131e-02 -1.080040000000000028e-01 3.913849999999999829e-01 -5.238810000000000411e-01 -1.327319999999999889e-01 -1.034367000000000036e+00
-8.813109999999999555e-01 -1.173059999999999936e-01 4.555449999999999777e-01 -3.676949999999999941e-01 1.953900000000000081e-01 2.604969999999999786e-01 -3.522830000000000128e-01 1.211770000000000069e-01 -1.398557999999999968e+00 8.535129999999999661e-01 5.176159999999999650e-01 -1.046599000000000057e+00 -2.026999999999999913e-01 1.064329999999999998e-01 1.823075000000000001e+00 4.865169999999999773e-01 -1.352859999999999951e+00 -2.345096999999999987e+00 3.314549999999999996e-01 -6.770900000000000529e-02 2.935369999999999924e-01 6.259829999999999561e-01 -5.857719999999999594e-01 1.273698999999999915e+00 -2.197600000000000109e-01 3.218130000000000157e-01 1.609860999999999986e+00 -1.056030999999999942e+00 3.034250000000000003e-01 1.749994000000000050e+00 7.492410000000000458e-01 -1.665359999999999896e-01 -9.835810000000000386e-01 5.457640000000000269e-01 2.292029999999999901e-01 -1.429774000000000100e+00 -6.690300000000000136e-01 3.338659999999999961e-01 -3.241249999999999964e-01 -5.699990000000000334e-01 1.369799999999999907e-01 -1.282109999999999916e-01 3.243750000000000244e-01 -4.704550000000000121e-01 -6.582139999999999658e-01 4.019610000000000127e-01 4.947360000000000091e-01 8.479510000000000103e-01
-1.152599999999999979e-02 1.001299999999999933e-02 -8.739999999999999939e-04 7.060199999999999809e-02 -1.049100000000000033e-02 1.801090000000000080e+00 1.066280000000000006e-01 -1.361000000000000057e-02 -7.637559999999999905e-01 3.950599999999999945e-02 1.113500000000000080e-02 2.920199999999999879e-02 4.134800000000000281e-02 1.270800000000000055e-02 7.294030000000000236e-01 -6.216000000000000171e-03 2.987400000000000125e-02 -2.572800000000000087e-02 -2.368299999999999919e-02 1.027199999999999988e-02 -1.344720000000000082e-01 2.685500000000000040e-02 8.045000000000000068e-03 1.815417000000000058e+00 -8.063299999999999634e-02 9.327000000000000568e-02 6.880020000000000024e-01 2.644000000000000083e-03 -1.476210000000000022e-01 7.441799999999999804e-02 6.059500000000000303e-02 1.609400000000000067e-02 -1.870393999999999890e+00 1.842299999999999841e-02 3.819700000000000178e-02 -3.133799999999999780e-02 -1.117499999999999917e-02 -2.935499999999999915e-02 4.126799999999999913e-02 -1.460740000000000094e-01 -5.377799999999999941e-02 -1.742947999999999942e+00 -7.625600000000000434e-02 4.055700000000000277e-02 -6.943519999999999692e-01 -1.103900000000000020e-02 -1.531000000000000069e-02 8.506099999999999772e-02
-1.473260000000000125e-01 -2.097559999999999980e-01 -6.902409999999999934e-01 -2.291690000000000116e-01 -1.002070000000000044e-01 5.354989999999999473e-01 -4.830070000000000197e-01 1.337369999999999948e-01 -1.389669999999999961e+00 1.991960000000000119e-01 2.091700000000000156e-02 2.849090000000000233e-01 -2.709779999999999966e-01 3.913349999999999884e-01 1.287166000000000032e+00 1.083459999999999979e-01 2.194069999999999909e-01 -1.376499999999999946e-02 1.189230000000000009e-01 -2.330099999999999949e-01 2.871659999999999768e-01 -1.739890000000000048e-01 8.383100000000000274e-02 2.524680000000000257e-01 4.032999999999999780e-02 -2.192070000000000130e-01 4.283420000000000005e-01 7.714200000000000224e-02 5.273240000000000149e-01 2.311539999999999984e-01 2.891509999999999914e-01 1.235409999999999980e-01 1.758889999999999898e-01 5.735999999999999779e-03 -4.038990000000000080e-01 -1.829919999999999880e-01 -6.010299999999999671e-02 4.865099999999999980e-02 1.120489999999999958e-01 1.969889999999999974e-01 -4.926869999999999861e-01 -8.909799999999999665e-02 4.498499999999999721e-02 4.583400000000000252e-01 -1.927194000000000074e+00 2.837740000000000262e-01 -3.483189999999999897e-01 6.983190000000000230e-01
8.382260000000000266e-01 -9.681389999999999718e-01 1.151961999999999930e+00 7.378099999999999936e-02 -9.516809999999999992e-01 4.458329999999999793e-01 2.557800000000000074e-01 8.239819999999999922e-01 -9.538550000000000084e-01 -9.067100000000000160e-01 3.090979999999999839e-01 1.084263999999999895e+00 -7.564999999999999676e-03 1.989090000000000025e-01 -1.241179000000000032e+00 -8.001829999999999776e-01 1.282459999999999989e-01 1.371537000000000006e+00 1.852900000000000102e-01 -5.762500000000000261e-02 -6.032490000000000352e-01 3.565249999999999808e-01 -7.336070000000000091e-01 1.002717000000000080e+00 2.703409999999999980e-01 9.705639999999999823e-01 -6.808170000000000055e-01 3.393439999999999790e-01 7.578340000000000076e-01 2.113659999999999983e-01 -2.917600000000000054e-02 -6.620249999999999746e-01 2.433530000000000137e-01 -2.688829999999999831e-01 -1.246043000000000012e+00 4.819590000000000263e-01 -1.009382999999999919e+00 -1.274889999999999912e-01 -2.810210000000000208e-01 5.476980000000000182e-01 6.108550000000000368e-01 -9.174250000000000460e-01 -8.352999999999999314e-02 6.117430000000000367e-01 -3.865799999999999792e-01 2.384449999999999903e-01 3.353800000000000114e-01 -9.288659999999999695e-01
-4.888190000000000035e-01 -1.058308999999999944e+00 1.780173999999999923e+00 1.209210000000000007e-01 -4.141380000000000061e-01 -1.071749000000000063e+00 2.214349999999999929e-01 5.627480000000000260e-01 -1.803706999999999949e+00 -6.375030000000000419e-01 3.307700000000000223e-02 8.451539999999999608e-01 -5.486240000000000006e-01 5.582999999999999768e-02 -3.520119999999999916e-01 -8.618470000000000297e-01 9.500319999999999876e-01 -1.988629999999999898e+00 6.049189999999999845e-01 -7.704119999999999857e-01 1.963206000000000007e+00 2.845610000000000084e-01 1.286589999999999900e+00 2.904199999999999837e-02 -2.610499999999999973e-02 -1.130592999999999959e+00 -4.651859999999999884e-01 6.371860000000000301e-01 6.923999999999999599e-02 4.003500000000000114e-02 3.718380000000000019e-01 4.981599999999999917e-01 -3.951919999999999877e-01 1.427019999999999955e-01 -3.477299999999999836e-01 -6.520559999999999690e-01 2.455249999999999932e-01 5.781319999999999792e-01 1.442072000000000020e+00 -5.710260000000000336e-01 -6.325200000000000267e-02 -3.785649999999999848e-01 6.862699999999999356e-02 4.932759999999999923e-01 4.394279999999999853e-01 4.362099999999999866e-01 -7.426530000000000076e-01 5.679859999999999909e-01
2.643759999999999999e-01 -9.896699999999999942e-02 5.108599999999999808e-01 2.022299999999999931e-01 -7.866349999999999731e-01 -7.540879999999999805e-01 7.670900000000000496e-01 -3.177969999999999962e-01 2.479422000000000015e+00 1.781179999999999986e-01 -3.489410000000000012e-01 -9.735150000000000192e-01 -3.026360000000000161e-01 6.630369999999999875e-01 -7.695739999999999803e-01 1.405490000000000073e-01 -8.449999999999999178e-03 7.180980000000000141e-01 -6.912430000000000518e-01 3.668980000000000019e-01 5.611019999999999897e-01 2.886889999999999734e-01 -3.003600000000000020e-02 -1.819955999999999907e+00 1.455950000000000022e-01 1.401219999999999966e-01 -1.193870999999999905e+00 -2.251569999999999960e-01 -1.859480000000000022e-01 -4.995089999999999808e-01 -1.665379999999999916e-01 5.591869999999999896e-01 -1.845890000000000031e-01 9.725300000000000611e-02 1.630379999999999885e-01 3.249369999999999759e-01 -1.067099999999999993e-01 4.990890000000000049e-01 -5.691779999999999617e-01 7.244390000000000551e-01 1.962349999999999928e-01 9.566199999999999704e-02 -1.292761999999999967e+00 -7.866840000000000499e-01 1.987867999999999968e+00 -2.329099999999999920e-02 -2.414799999999999933e-02 8.633299999999999308e-02
-1.827310000000000045e-01 2.270429999999999948e-01 -2.017539999999999889e+00 -3.359829999999999761e-01 -4.477249999999999841e-01 2.727180000000000160e-01 -7.560149999999999926e-01 -1.769699999999999884e-01 2.092630000000000046e-01 6.189800000000000163e-02 -1.844799999999999912e-02 -9.685019999999999740e-01 -7.599139999999999784e-01 4.720820000000000016e-01 -4.258799999999999808e-01 1.554139999999999966e-01 -4.654190000000000271e-01 9.527769999999999850e-01 -2.568949999999999845e-01 -1.561300000000000014e-02 -2.396761999999999837e+00 7.383129999999999971e-01 9.794739999999999558e-01 1.540000000000000028e-04 4.928779999999999828e-01 -5.495229999999999837e-01 -6.648900000000000643e-02 -5.485609999999999653e-01 1.191705000000000014e+00 1.146873000000000031e+00 -1.906799999999999884e-01 -1.393119999999999914e-01 3.234210000000000140e-01 6.778899999999999926e-01 -3.972169999999999868e-01 1.784783999999999926e+00 -5.355100000000000138e-02 -3.005579999999999918e-01 -5.098939999999999584e-01 3.140620000000000078e-01 -7.237700000000000244e-01 3.995079999999999742e-01 6.198930000000000273e-01 4.310749999999999860e-01 3.552159999999999762e-01 2.398300000000000085e-02 -6.682499999999999551e-02 9.403529999999999944e-01
-7.429470000000000240e-01 -7.474119999999999653e-01 1.627450000000000008e-01 -5.590270000000000516e-01 1.880670000000000119e-01 7.963719999999999688e-01 4.541870000000000074e-01 -5.014800000000000368e-01 4.128099999999999825e-02 2.930820000000000092e-01 1.186610000000000026e-01 2.734920000000000129e-01 -1.383969999999999922e-01 -2.974950000000000094e-01 -3.997580000000000022e-01 8.911869999999999514e-01 5.656970000000000054e-01 5.968940000000000357e-01 1.442890000000000006e-01 -1.078599999999999975e-01 -5.045389999999999597e-01 -4.484029999999999960e-01 -2.368599999999999872e-02 1.508675999999999906e+00 7.415749999999999842e-01 1.678070000000000117e-01 -1.135841000000000101e+00 5.291820000000000412e-01 9.766449999999999854e-01 -6.414760000000000462e-01 -8.532180000000000319e-01 -1.611980000000000079e-01 -1.298570999999999920e+00 -4.077069999999999861e-01 7.488839999999999941e-01 -4.988969999999999794e-01 6.595900000000000096e-01 -3.618919999999999915e-01 6.012779999999999792e-01 -1.188096000000000041e+00 -1.828849999999999920e-01 5.404029999999999667e-01 6.061280000000000001e-01 -5.570929999999999493e-01 7.583170000000000188e-01 1.857299999999999923e-02 1.752400000000000069e-01 -8.003770000000000051e-01
-3.995400000000000340e-02 1.444550000000000001e-01 9.915329999999999977e-01 -2.203199999999999950e-02 -3.467400000000000343e-02 1.400900000000000062e-02 -1.348399999999999946e-02 -1.905139999999999889e-01 -9.204510000000000192e-01 -2.551300000000000096e-02 2.914500000000000077e-02 9.844479999999999897e-01 -2.656999999999999987e-02 -5.000700000000000284e-02 -3.468999999999999861e-03 2.867600000000000010e-02 1.063010000000000066e-01 9.678120000000000056e-01 2.596599999999999950e-02 4.784299999999999664e-02 7.452200000000000490e-02 1.339100000000000013e-02 -2.636399999999999855e-02 -3.519499999999999712e-02 -3.220100000000000046e-02 -4.323899999999999966e-02 6.837799999999999434e-02 3.461299999999999794e-02 1.793300000000000102e-02 9.600959999999999495e-01 -8.672499999999999654e-02 1.218899999999999983e-01 -9.603070000000000217e-01 1.153870000000000035e-01 9.339999999999999691e-02 -9.580760000000000387e-01 3.408499999999999724e-02 5.466599999999999931e-02 -5.272500000000000103e-02 -6.591999999999999769e-03 2.840300000000000116e-02 -2.143400000000000166e-02 7.714000000000000370e-03 -1.936599999999999988e-01 -9.884340000000000348e-01 -6.762999999999999914e-03 -1.055770000000000042e-01 -1.207069999999999949e-01
-3.995400000000000340e-02 1.444550000000000001e-01 9.915329999999999977e-01 -2.203199999999999950e-02 -3.467400000000000343e-02 1.400900000000000062e-02 -1.348399999999999946e-02 -1.905139999999999889e-01 -9.204510000000000192e-01 -2.551300000000000096e-02 2.914500000000000077e-02 9.844479999999999897e-01 -2.656999999999999987e-02 -5.000700000000000284e-02 -3.468999999999999861e-03 2.867600000000000010e-02 1.063010000000000066e-01 9.678120000000000056e-01 2.596599999999999950e-02 4.784299999999999664e-02 7.452200000000000490e-02 1.339100000000000013e-02 -2.636399999999999855e-02 -3.519499999999999712e-02 -3.220100000000000046e-02 -4.323899999999999966e-02 6.837799999999999434e-02 3.461299999999999794e-02 1.793300000000000102e-02 9.600959999999999495e-01 -8.672499999999999654e-02 1.218899999999999983e-01 -9.603070000000000217e-01 1.153870000000000035e-01 9.339999999999999691e-02 -9.580760000000000387e-01 3.408599999999999824e-02 5.466599999999999931e-02 -5.272500000000000103e-02 -6.591999999999999769e-03 2.840300000000000116e-02 -2.143400000000000166e-02 7.714000000000000370e-03 -1.936599999999999988e-01 -9.884340000000000348e-01 -6.762999999999999914e-03 -1.055770000000000042e-01 -1.207069999999999949e-01
-3.762639999999999874e-01 2.339680000000000093e-01 5.356279999999999930e-01 -1.456479999999999997e-01 -8.827500000000000624e-02 -7.610050000000000425e-01 3.574209999999999887e-01 -3.416279999999999872e-01 4.422789999999999777e-01 1.552861999999999965e+00 -3.748040000000000260e-01 2.719249999999999723e-01 -4.986419999999999741e-01 -1.805609999999999993e-01 -9.193149999999999933e-01 -1.230623999999999940e+00 6.103070000000000439e-01 3.144199999999999773e-01 4.157199999999999784e-02 -2.507099999999999954e-02 5.789379999999999526e-01 -7.299999999999999545e-02 1.563640000000000030e-01 -7.603440000000000198e-01 8.136250000000000426e-01 3.251399999999999846e-01 3.223579999999999779e-01 -9.853999999999999912e-03 5.894310000000000382e-01 -1.189532000000000034e+00 -2.975949999999999984e-01 -9.421999999999999820e-02 5.234809999999999741e-01 -3.251330000000000053e-01 -6.307580000000000409e-01 -3.318820000000000103e-01 5.928240000000000176e-01 -4.411979999999999791e-01 1.147607000000000044e+00 7.221670000000000034e-01 -4.493170000000000219e-01 -7.074449999999999905e-01 -1.990510000000000057e-01 -4.960900000000000032e-02 -7.977610000000000534e-01 -9.246600000000000374e-01 7.602309999999999901e-01 1.330648000000000053e+00
-1.192060000000000064e-01 1.025630000000000014e-01 -7.507120000000000459e-01 2.038109999999999922e-01 -5.326180000000000359e-01 7.371490000000000542e-01 1.659650000000000014e-01 -5.918719999999999537e-01 9.698419999999999819e-01 8.716739999999999489e-01 -5.089960000000000040e-01 -6.031500000000000056e-02 -1.497360000000000080e-01 1.457610000000000017e-01 -1.634269999999999889e-01 -9.747109999999999941e-01 2.739000000000000115e-02 -3.190109999999999890e-01 8.540790000000000326e-01 1.484759999999999969e-01 -8.252329999999999943e-01 -1.314945000000000030e+00 -1.063120000000000037e-01 -3.533589999999999787e-01 -5.568400000000000016e-01 2.901839999999999975e-01 7.036210000000000520e-01 1.442393999999999954e+00 1.697069999999999967e-01 -9.510220000000000340e-01 3.774850000000000150e-01 2.544620000000000215e-01 3.832079999999999931e-01 5.997339999999999893e-01 4.101810000000000178e-01 4.468790000000000262e-01 3.446940000000000004e-01 -5.173860000000000126e-01 -8.100999999999999868e-02 -4.190039999999999876e-01 5.054000000000000332e-03 -3.534669999999999757e-01 -5.983929999999999527e-01 1.456550000000000067e-01 5.114600000000000257e-01 -7.270020000000000371e-01 5.577509999999999968e-01 1.053960000000000036e-01
-1.152599999999999979e-02 1.001299999999999933e-02 -8.739999999999999939e-04 7.060199999999999809e-02 -1.049100000000000033e-02 1.801090000000000080e+00 1.066280000000000006e-01 -1.361000000000000057e-02 -7.637559999999999905e-01 3.950599999999999945e-02 1.113500000000000080e-02 2.920199999999999879e-02 4.134800000000000281e-02 1.270800000000000055e-02 7.294030000000000236e-01 -6.216000000000000171e-03 2.987400000000000125e-02 -2.572800000000000087e-02 -2.368299999999999919e-02 1.027199999999999988e-02 -1.344720000000000082e-01 2.685500000000000040e-02 8.045000000000000068e-03 1.815417000000000058e+00 -8.063299999999999634e-02 9.327000000000000568e-02 6.880020000000000024e-01 2.644000000000000083e-03 -1.476210000000000022e-01 7.441799999999999804e-02 6.059500000000000303e-02 1.609400000000000067e-02 -1.870393999999999890e+00 1.842299999999999841e-02 3.819700000000000178e-02 -3.133799999999999780e-02 -1.117499999999999917e-02 -2.935499999999999915e-02 4.126799999999999913e-02 -1.460740000000000094e-01 -5.377799999999999941e-02 -1.742947999999999942e+00 -7.625600000000000434e-02 4.055700000000000277e-02 -6.943519999999999692e-01 -1.103900000000000020e-02 -1.531000000000000069e-02 8.506099999999999772e-02
6.077609999999999957e-01 2.923479999999999968e-01 -2.019649999999999945e+00 -1.180270000000000069e-01 -7.653130000000000210e-01 3.514599999999999669e-02 8.383049999999999669e-01 -6.896419999999999773e-01 4.842199999999999976e-02 -6.115519999999999845e-01 -2.444199999999999984e-01 3.318559999999999843e-01 -3.726849999999999885e-01 3.885939999999999950e-01 3.184429999999999761e-01 5.952400000000000052e-02 2.416419999999999957e-01 2.912480000000000069e-01 -2.603480000000000238e-01 2.242319999999999869e-01 -2.890823999999999838e+00 -1.653509999999999980e-01 -2.707129999999999814e-01 2.818669999999999787e-01 5.477279999999999927e-01 -1.258219999999999894e-01 3.816689999999999805e-01 7.172199999999999409e-02 -3.582099999999999868e-02 1.273951000000000056e+00 -4.493960000000000177e-01 7.779779999999999474e-01 -2.888500000000000095e-02 -2.245429999999999926e-01 1.224699999999999921e-02 8.826199999999999601e-01 1.594629999999999936e-01 -1.070813999999999933e+00 2.211909999999999987e-01 6.963890000000000358e-01 7.867439999999999989e-01 5.912979999999999903e-01 -8.766490000000000116e-01 3.554599999999999982e-01 -3.816840000000000233e-01 9.765899999999999581e-02 1.233009999999999939e-01 6.633329999999999504e-01
7.738469999999999516e-01 9.852250000000000174e-01 -2.348999999999999977e-01 3.654850000000000043e-01 -1.167205000000000048e+00 9.620800000000000185e-02 5.969870000000000454e-01 -2.526680000000000037e-01 6.716980000000000173e-01 -9.759759999999999547e-01 6.353569999999999496e-01 -6.801099999999999923e-01 -5.623540000000000205e-01 1.957150000000000001e-01 -8.948279999999999568e-01 3.187030000000000141e-01 9.448509999999999964e-01 8.256909999999999528e-01 -8.469290000000000429e-01 3.500770000000000270e-01 5.641779999999999573e-01 1.788340999999999958e+00 -2.535919999999999841e-01 -4.291969999999999952e-01 -4.407340000000000146e-01 2.553730000000000167e-01 -2.482030000000000070e-01 -1.282248000000000054e+00 -8.936399999999999899e-02 -4.742830000000000101e-01 -7.488820000000000476e-01 -5.775399999999999978e-02 6.487829999999999986e-01 1.421299999999999994e-02 -1.120338999999999974e+00 -1.326199999999999948e-02 1.958400000000000071e-02 -5.318429999999999547e-01 7.989849999999999453e-01 -1.341999999999999964e-02 -3.614459999999999895e-01 -3.335210000000000119e-01 3.820400000000000185e-02 4.868930000000000202e-01 -3.121419999999999750e-01 9.551779999999999715e-01 -1.927900000000000100e-02 1.490299999999999958e-02
2.526300000000000212e-01 2.907689999999999997e-01 -1.584257999999999944e+00 5.154680000000000373e-01 1.129799999999999971e-01 -8.623539999999999539e-01 -2.759289999999999798e-01 -1.455170000000000075e-01 3.031249999999999778e-01 -2.611720000000000153e-01 -2.407660000000000078e-01 -2.688119999999999954e-01 6.029369999999999452e-01 2.594879999999999964e-01 2.650140000000000273e-01 9.928299999999999625e-02 5.520180000000000087e-01 8.621839999999999504e-01 3.680379999999999763e-01 3.606999999999999963e-03 -1.912727000000000066e+00 -1.389340000000000019e+00 -1.422730000000000106e-01 -1.517676000000000025e+00 -3.735600000000000032e-02 1.907909999999999884e-01 9.335900000000000309e-01 2.538400000000000101e-01 -7.765919999999999490e-01 1.235970000000000013e+00 -1.569200000000000109e-02 -5.662509999999999488e-01 6.884689999999999976e-01 -4.403420000000000112e-01 -7.455100000000000615e-02 8.363340000000000218e-01 3.694700000000000067e-02 4.418799999999999950e-01 -1.255543999999999993e+00 4.629199999999999982e-01 4.941039999999999877e-01 1.178563999999999945e+00 -2.901099999999999859e-02 -5.118960000000000177e-01 -5.383299999999999752e-01 -1.432209999999999872e-01 1.122090000000000032e-01 1.636451000000000100e+00
1.514719999999999955e-01 4.565799999999999720e-02 -1.257250000000000034e-01 5.398700000000000027e-02 3.782119999999999926e-01 7.526019999999999932e-01 3.643179999999999752e-01 -3.275509999999999811e-01 -4.032290000000000041e-01 1.393050000000000122e-01 -2.463509999999999867e-01 7.965400000000000258e-01 -4.305400000000000199e-02 3.280350000000000210e-01 6.899690000000000545e-01 2.691620000000000124e-01 -6.906900000000000539e-02 5.935279999999999445e-01 2.632550000000000168e-01 -2.305059999999999887e-01 -8.049539999999999473e-01 -2.809630000000000183e-01 -6.027390000000000247e-01 2.515970000000000151e-01 -1.817429999999999879e-01 1.760309999999999930e-01 -4.700520000000000254e-01 -3.961899999999999866e-01 2.220040000000000069e-01 2.009400000000000075e-02 -1.820559999999999956e-01 4.909560000000000035e-01 -6.327739999999999476e-01 3.107090000000000130e-01 7.160700000000000398e-02 -6.844679999999999653e-01 -2.098730000000000040e-01 -8.244700000000000639e-02 6.043929999999999580e-01 -3.312050000000000272e-01 2.084159999999999902e-01 -2.342869999999999953e-01 4.384330000000000171e-01 1.296899999999999963e-02 -1.091509999999999980e-01 -3.655570000000000208e-01 -3.752249999999999752e-01 -2.440849999999999964e-01
-6.868090000000000028e-01 5.853049999999999642e-01 2.475458000000000158e+00 -1.424860000000000015e-01 -5.309120000000000505e-01 -1.273999999999999959e-02 3.589450000000000141e-01 -3.843920000000000115e-01 -4.185039999999999871e-01 6.276370000000000005e-01 -4.146070000000000033e-01 2.508009999999999962e-01 2.169310000000000127e-01 9.737350000000000172e-01 -2.813530000000000197e-01 3.205459999999999976e-01 2.559719999999999773e-01 -9.082160000000000233e-01 8.987889999999999491e-01 4.388179999999999858e-01 2.268524999999999903e+00 6.680600000000000427e-02 3.307979999999999809e-01 7.916750000000000176e-01 -7.566699999999999815e-02 -6.381489999999999663e-01 -2.366330000000000100e-01 -6.951760000000000161e-01 5.803359999999999630e-01 -9.332179999999999920e-01 1.265163000000000038e+00 9.055830000000000268e-01 -1.856962000000000002e+00 5.218469999999999498e-01 -1.611500000000000085e-02 4.485000000000000098e-02 -1.010364000000000040e+00 -2.169530000000000070e-01 6.223549999999999915e-01 -5.585360000000000325e-01 -2.070220000000000116e-01 -1.638028000000000040e+00 -1.119947999999999944e+00 -6.426359999999999850e-01 9.635700000000000376e-01 1.231999999999999935e-02 -1.019760999999999918e+00 -1.131577000000000055e+00
-2.330160000000000009e-01 1.382629999999999970e-01 9.662439999999999918e-01 -2.044529999999999959e-01 1.526869999999999894e-01 9.228999999999999357e-03 8.290300000000000447e-02 -2.514440000000000008e-01 -2.172244000000000064e+00 5.683120000000000394e-01 -3.243099999999999872e-01 -2.496899999999999953e-01 5.416189999999999616e-01 -1.154414999999999969e+00 1.150328000000000017e+00 -1.844889999999999863e-01 8.130389999999999562e-01 -1.652638000000000051e+00 1.263131000000000004e+00 1.659279999999999922e-01 -7.241229999999999611e-01 -2.392040000000000000e-01 -2.294299999999999951e-01 6.757459999999999578e-01 -8.194200000000000095e-02 7.114470000000000516e-01 1.871990000000000043e+00 -9.986699999999999744e-02 -1.062786999999999926e+00 7.876180000000000403e-01 7.558810000000000251e-01 7.733099999999999696e-02 3.079600000000000115e-01 -2.455140000000000100e-01 6.839129999999999932e-01 -1.208846000000000087e+00 -6.662420000000000009e-01 -3.644599999999999923e-02 8.308069999999999622e-01 -1.002890000000000059e+00 8.497430000000000261e-01 6.731629999999999558e-01 -7.773240000000000149e-01 -7.692890000000000006e-01 -1.473193999999999892e+00 5.230949999999999767e-01 2.357700000000000073e-01 2.076510000000000022e-01
1.084109999999999935e-01 -1.338789999999999980e-01 2.327529999999999877e-01 -3.330710000000000059e-01 -1.582270000000000065e-01 1.111979999999999968e+00 3.293409999999999949e-01 1.594649999999999956e-01 -1.589620999999999951e+00 -5.475320000000000187e-01 -1.507050000000000056e-01 2.271259999999999946e-01 3.979030000000000067e-01 2.764300000000000090e-02 5.793819999999999526e-01 1.269399999999999973e-01 1.056679999999999980e-01 4.419009999999999883e-01 3.942129999999999801e-01 -1.674319999999999975e-01 -2.564100000000000268e-01 1.870699999999999863e-01 2.442449999999999899e-01 5.099059999999999704e-01 1.029570000000000068e-01 -3.216550000000000242e-01 5.681589999999999696e-01 -3.873000000000000140e-03 9.301299999999999846e-02 -2.560080000000000133e-01 2.843169999999999864e-01 1.904339999999999922e-01 -9.872999999999999832e-03 -5.801119999999999610e-01 -7.369000000000000550e-02 2.728380000000000249e-01 1.365210000000000035e-01 -2.077779999999999905e-01 -6.140729999999999800e-01 -1.972190000000000054e-01 -5.247299999999999881e-02 2.116600000000000079e-02 -6.179360000000000408e-01 3.372009999999999730e-01 -1.948185000000000056e+00 2.120700000000000085e-01 1.081690000000000013e-01 7.089600000000000346e-01
5.891640000000000210e-01 8.750449999999999617e-01 -6.717619999999999703e-01 5.702749999999999764e-01 -1.594381999999999966e+00 6.448840000000000128e-01 7.395699999999999497e-01 -5.580049999999999732e-01 1.081939999999999902e+00 3.464199999999999918e-02 4.253439999999999999e-01 -6.951460000000000417e-01 -5.321280000000000454e-01 2.781270000000000131e-01 -5.844939999999999580e-01 -6.437479999999999869e-01 7.952479999999999549e-01 1.754529999999999978e-01 -9.339500000000000579e-02 3.069870000000000099e-01 -2.676350000000000118e-01 4.567880000000000273e-01 -4.463559999999999750e-01 -3.600189999999999779e-01 -9.325409999999999533e-01 6.066529999999999978e-01 2.296080000000000065e-01 -6.602800000000000336e-02 -4.294300000000000200e-02 -8.593859999999999832e-01 -4.808189999999999964e-01 1.632520000000000082e-01 4.983440000000000092e-01 4.133970000000000145e-01 -6.108130000000000503e-01 4.579079999999999817e-01 3.955099999999999727e-01 -7.884309999999999929e-01 4.308850000000000180e-01 -1.662059999999999926e-01 -1.964210000000000123e-01 -2.577380000000000226e-01 -1.749209999999999932e-01 4.071270000000000167e-01 2.487389999999999879e-01 -1.095610000000000056e-01 3.795689999999999897e-01 -7.158000000000000473e-02
-6.912639999999999896e-01 1.031959999999999961e-01 -1.470099000000000045e+00 2.122749999999999915e-01 -3.164719999999999756e-01 7.121199999999999752e-02 4.795360000000000178e-01 -2.654899999999999968e-02 5.524930000000000119e-01 7.134519999999999751e-01 -4.422999999999999848e-03 -1.825533999999999990e+00 -3.720820000000000238e-01 7.062800000000000189e-01 7.179440000000000266e-01 -4.417240000000000055e-01 -2.270469999999999988e-01 1.037952999999999903e+00 5.535050000000000248e-01 3.243719999999999937e-01 -2.148422000000000054e+00 4.751730000000000120e-01 3.559800000000000186e-01 5.244670000000000165e-01 -3.734839999999999827e-01 2.095760000000000123e-01 4.103620000000000045e-01 9.219600000000000017e-02 -5.613209999999999589e-01 1.099072000000000049e+00 5.883939999999999726e-01 3.805800000000000155e-02 -7.026599999999999513e-01 -4.812000000000000166e-01 3.621010000000000062e-01 1.294159000000000059e+00 -6.696210000000000218e-01 -8.383639999999999981e-01 -1.595334000000000030e+00 -1.084665999999999908e+00 -2.881600000000000272e-01 -4.430780000000000274e-01 1.249119999999999953e-01 -2.883000000000000146e-03 9.750640000000000418e-01 8.745969999999999578e-01 1.656579999999999997e-01 1.502399999999999958e+00
-3.995400000000000340e-02 1.444550000000000001e-01 9.915329999999999977e-01 -2.203199999999999950e-02 -3.467400000000000343e-02 1.400900000000000062e-02 -1.348399999999999946e-02 -1.905139999999999889e-01 -9.204510000000000192e-01 -2.551300000000000096e-02 2.914500000000000077e-02 9.844479999999999897e-01 -2.656999999999999987e-02 -5.000700000000000284e-02 -3.468999999999999861e-03 2.867600000000000010e-02 1.063010000000000066e-01 9.678120000000000056e-01 2.596599999999999950e-02 4.784299999999999664e-02 7.452200000000000490e-02 1.339100000000000013e-02 -2.636399999999999855e-02 -3.519499999999999712e-02 -3.220100000000000046e-02 -4.323899999999999966e-02 6.837799999999999434e-02 3.461299999999999794e-02 1.793300000000000102e-02 9.600959999999999495e-01 -8.672499999999999654e-02 1.218899999999999983e-01 -9.603070000000000217e-01 1.153870000000000035e-01 9.339999999999999691e-02 -9.580760000000000387e-01 3.408599999999999824e-02 5.466599999999999931e-02 -5.272500000000000103e-02 -6.591999999999999769e-03 2.840300000000000116e-02 -2.143400000000000166e-02 7.714000000000000370e-03 -1.936599999999999988e-01 -9.884340000000000348e-01 -6.762999999999999914e-03 -1.055770000000000042e-01 -1.207069999999999949e-01