-3.546043852999999757e+01
-3.507103780999999998e+01
-3.547805134000000038e+01
-3.520685637999999784e+01
-3.472954299999999961e+01
-3.417608125999999658e+01
-3.338492676999999986e+01
-3.600423706000000124e+01
-3.726662589000000025e+01
-3.483903755000000046e+01
-3.586755227999999818e+01
-3.482689670999999976e+01
-3.529063127999999949e+01
-3.557454330000000198e+01
-3.541593721000000272e+01
-3.706643334999999695e+01
-4.004257881000000197e+01
-3.614249276999999694e+01
-3.434520979999999923e+01
-3.492611727999999971e+01
-3.415341063000000332e+01
-3.607399029999999840e+01
-3.618392863999999776e+01
-3.466175027999999969e+01
-3.520464626999999780e+01
-3.614661966999999976e+01
-3.578245019999999954e+01
-3.860161338999999714e+01
-3.659845981000000137e+01
-3.455782671000000050e+01
-3.532641370999999708e+01
-3.656732064999999920e+01
-3.869804666999999654e+01
-4.008713745000000017e+01
-3.496315272999999735e+01
-3.595420029999999656e+01
-3.505026180000000124e+01
-3.542748484999999903e+01
-3.606042192999999685e+01
-3.705305536000000188e+01
-3.941364770999999934e+01
-3.491076335999999714e+01
-3.505729171000000122e+01
-3.455513954999999982e+01
-3.400717493999999874e+01
-3.576077613999999727e+01
-3.596669878000000153e+01
-3.592713834999999989e+01
-3.611344935999999706e+01
-3.358071229000000102e+01
-3.561320240999999953e+01
-3.273144150000000252e+01
-3.581356725999999924e+01
-3.563934171999999734e+01
-3.696581241999999889e+01
-3.663399907000000155e+01
-3.437264256999999645e+01
-3.574552537999999657e+01
-3.667170240000000092e+01
-3.486910784999999890e+01
-3.904468525000000056e+01
-3.545743215000000248e+01
-3.946415328999999872e+01
-3.517440496999999766e+01
-3.526533604000000111e+01
-3.555702613999999784e+01
-3.920908288999999769e+01
-3.613552477000000351e+01
-3.545285812000000192e+01
-3.558271008999999907e+01
-3.654437381000000329e+01
-3.470924460999999894e+01
-3.612648097000000291e+01
-3.864278720000000078e+01
-3.319412260000000003e+01
-3.541251748999999904e+01
-3.873697239999999908e+01
-3.638567574999999721e+01
-3.505147436000000027e+01
-3.624585066000000211e+01
-3.420075586000000101e+01
-3.430035174999999725e+01
-3.445435487999999680e+01
-3.496698534000000080e+01
-3.475414539999999874e+01
-3.434313547000000000e+01
-4.000039696000000333e+01
-3.669900272000000285e+01
-3.639066327999999828e+01
-3.662076715999999976e+01
-3.499326577000000071e+01
-3.604423821000000316e+01
-3.488568858000000006e+01
-3.463605084000000289e+01
-3.581243200000000115e+01
-3.844750822000000312e+01
-3.577025642000000261e+01
-3.886097593000000217e+01
-3.470669303999999755e+01
-3.618412070000000114e+01
