4.052559526999999662e+00 0.000000000000000000e+00 0.000000000000000000e+00 1.293771500000000067e-02 2.476783091999999797e+00 0.000000000000000000e+00 -8.109194000000000124e-02 1.313650829999999936e-01 1.334386026600000008e+01
3.977168708000000219e+00 0.000000000000000000e+00 0.000000000000000000e+00 -5.575708199999999948e-02 2.507900659999999782e+00 0.000000000000000000e+00 2.183322990000000074e-01 -7.888748099999999541e-02 1.353873564100000060e+01
4.255225975000000105e+00 0.000000000000000000e+00 0.000000000000000000e+00 -3.942282099999999678e-02 2.530339362999999953e+00 0.000000000000000000e+00 -5.319207199999999996e-02 -5.623247479999999854e-01 2.292325197999999986e+01
4.358952698999999598e+00 0.000000000000000000e+00 0.000000000000000000e+00 -7.431830400000000170e-02 2.774323927999999828e+00 0.000000000000000000e+00 -5.490018840000000511e-01 2.677334299999999945e-01 2.300333954399999925e+01
4.377408995999999775e+00 0.000000000000000000e+00 0.000000000000000000e+00 -5.822259899999999988e-02 2.589585222999999825e+00 0.000000000000000000e+00 3.752736640000000068e-01 -4.652016700000000116e-02 1.770414730099999900e+01
4.358952698999999598e+00 0.000000000000000000e+00 0.000000000000000000e+00 -7.431830400000000170e-02 2.774323927999999828e+00 0.000000000000000000e+00 -5.490018840000000511e-01 2.677334299999999945e-01 2.300333954399999925e+01
3.968563614999999878e+00 0.000000000000000000e+00 0.000000000000000000e+00 3.246642799999999857e-02 2.500895562000000183e+00 0.000000000000000000e+00 -3.791115760000000057e-01 -3.285378860000000012e-01 1.380680179800000040e+01
4.358741162000000280e+00 0.000000000000000000e+00 0.000000000000000000e+00 1.840216700000000052e-02 2.664940473000000143e+00 0.000000000000000000e+00 -2.689885619999999866e-01 2.436758400000000116e-02 2.348253607999999915e+01
4.052559526999999662e+00 0.000000000000000000e+00 0.000000000000000000e+00 1.293771500000000067e-02 2.476783091999999797e+00 0.000000000000000000e+00 -8.109194000000000124e-02 1.313650829999999936e-01 1.334386026600000008e+01
3.968563614999999878e+00 0.000000000000000000e+00 0.000000000000000000e+00 3.246642799999999857e-02 2.500895562000000183e+00 0.000000000000000000e+00 -3.791115760000000057e-01 -3.285378860000000012e-01 1.380680179800000040e+01
4.265539633000000386e+00 0.000000000000000000e+00 0.000000000000000000e+00 -1.055481699999999932e-02 2.594770897000000076e+00 0.000000000000000000e+00 -9.315695000000000225e-02 3.347170640000000086e-01 2.202256179800000169e+01
3.973553175000000159e+00 0.000000000000000000e+00 0.000000000000000000e+00 -2.349971899999999878e-02 2.413562676999999823e+00 0.000000000000000000e+00 3.130734539999999733e-01 6.956865499999999314e-02 1.505793142899999992e+01
4.370866733999999809e+00 0.000000000000000000e+00 0.000000000000000000e+00 1.673895400000000033e-02 2.660837048999999954e+00 0.000000000000000000e+00 4.428137079999999726e-01 -1.545219919999999969e-01 2.003815336499999944e+01
4.358952698999999598e+00 0.000000000000000000e+00 0.000000000000000000e+00 -7.431830400000000170e-02 2.774323927999999828e+00 0.000000000000000000e+00 -5.490018840000000511e-01 2.677334299999999945e-01 2.300333954399999925e+01
4.014541245000000202e+00 0.000000000000000000e+00 0.000000000000000000e+00 -4.585754899999999745e-02 2.556973430999999852e+00 0.000000000000000000e+00 4.243578550000000060e-01 -6.252464600000000317e-02 1.479983676400000014e+01
4.052559526999999662e+00 0.000000000000000000e+00 0.000000000000000000e+00 1.293771500000000067e-02 2.476783091999999797e+00 0.000000000000000000e+00 -8.109194000000000124e-02 1.313650829999999936e-01 1.334386026600000008e+01
4.280157549000000117e+00 0.000000000000000000e+00 0.000000000000000000e+00 2.374754100000000048e-02 2.600212024999999816e+00 0.000000000000000000e+00 -2.065474429999999972e-01 -5.713817749999999807e-01 2.037417123799999885e+01
3.968563614999999878e+00 0.000000000000000000e+00 0.000000000000000000e+00 3.246642799999999857e-02 2.500895562000000183e+00 0.000000000000000000e+00 -3.791115760000000057e-01 -3.285378860000000012e-01 1.380680179800000040e+01
4.255225975000000105e+00 0.000000000000000000e+00 0.000000000000000000e+00 -3.942282099999999678e-02 2.530339362999999953e+00 0.000000000000000000e+00 -5.319207199999999996e-02 -5.623247479999999854e-01 2.292325197999999986e+01
4.399291951000000367e+00 0.000000000000000000e+00 0.000000000000000000e+00 -2.231737400000000093e-02 2.696969573000000064e+00 0.000000000000000000e+00 3.213138420000000162e-01 -1.247538509999999989e-01 1.692863011900000103e+01
3.977168708000000219e+00 0.000000000000000000e+00 0.000000000000000000e+00 -5.575708199999999948e-02 2.507900659999999782e+00 0.000000000000000000e+00 2.183322990000000074e-01 -7.888748099999999541e-02 1.353873564100000060e+01
4.133215500000000375e+00 0.000000000000000000e+00 0.000000000000000000e+00 -4.721013799999999871e-02 2.506155988000000168e+00 0.000000000000000000e+00 -2.520167429999999875e-01 -3.021482899999999860e-02 1.526815773899999940e+01
4.265539633000000386e+00 0.000000000000000000e+00 0.000000000000000000e+00 -1.055481699999999932e-02 2.594770897000000076e+00 0.000000000000000000e+00 -9.315695000000000225e-02 3.347170640000000086e-01 2.202256179800000169e+01
3.977168708000000219e+00 0.000000000000000000e+00 0.000000000000000000e+00 -5.575708199999999948e-02 2.507900659999999782e+00 0.000000000000000000e+00 2.183322990000000074e-01 -7.888748099999999541e-02 1.353873564100000060e+01
4.123894360000000425e+00 0.000000000000000000e+00 0.000000000000000000e+00 -9.100039999999999562e-04 2.436260321999999867e+00 0.000000000000000000e+00 1.934552459999999974e-01 -2.534720979999999790e-01 1.612290398800000091e+01
4.282001242999999846e+00 0.000000000000000000e+00 0.000000000000000000e+00 -2.091284499999999935e-02 2.668247091000000015e+00 0.000000000000000000e+00 1.776138240000000035e-01 1.598194199999999898e-01 2.161186378000000019e+01
4.028170392999999905e+00 0.000000000000000000e+00 0.000000000000000000e+00 -3.329999100000000101e-02 2.425810473999999939e+00 0.000000000000000000e+00 1.246349929999999995e-01 4.240115400000000201e-01 1.492550908900000017e+01
4.119125238999999716e+00 0.000000000000000000e+00 0.000000000000000000e+00 1.852382699999999965e-02 2.508815515999999857e+00 0.000000000000000000e+00 -6.899221799999999405e-02 -1.700520879999999901e-01 1.708406553000000017e+01
4.117343113000000443e+00 0.000000000000000000e+00 0.000000000000000000e+00 4.856655499999999737e-02 2.516479627999999913e+00 0.000000000000000000e+00 -1.004995709999999959e-01 4.042266740000000080e-01 1.564156327999999974e+01
3.968563614999999878e+00 0.000000000000000000e+00 0.000000000000000000e+00 3.246642799999999857e-02 2.500895562000000183e+00 0.000000000000000000e+00 -3.791115760000000057e-01 -3.285378860000000012e-01 1.380680179800000040e+01
4.118727769000000372e+00 0.000000000000000000e+00 0.000000000000000000e+00 -4.279129000000000266e-02 2.523273575000000157e+00 0.000000000000000000e+00 -5.075811899999999738e-02 -2.042673939999999910e-01 2.232970831600000139e+01
4.027638637999999993e+00 0.000000000000000000e+00 0.000000000000000000e+00 6.688287599999999389e-02 2.538378805999999877e+00 0.000000000000000000e+00 -3.507413930000000124e-01 2.243986960000000086e-01 1.332573810000000059e+01
3.977168708000000219e+00 0.000000000000000000e+00 0.000000000000000000e+00 -5.575708199999999948e-02 2.507900659999999782e+00 0.000000000000000000e+00 2.183322990000000074e-01 -7.888748099999999541e-02 1.353873564100000060e+01
3.977168708000000219e+00 0.000000000000000000e+00 0.000000000000000000e+00 -5.575708199999999948e-02 2.507900659999999782e+00 0.000000000000000000e+00 2.183322990000000074e-01 -7.888748099999999541e-02 1.353873564100000060e+01
4.118727769000000372e+00 0.000000000000000000e+00 0.000000000000000000e+00 -4.279129000000000266e-02 2.523273575000000157e+00 0.000000000000000000e+00 -5.075811899999999738e-02 -2.042673939999999910e-01 2.232970831600000139e+01
3.977168708000000219e+00 0.000000000000000000e+00 0.000000000000000000e+00 -5.575708199999999948e-02 2.507900659999999782e+00 0.000000000000000000e+00 2.183322990000000074e-01 -7.888748099999999541e-02 1.353873564100000060e+01
4.052559526999999662e+00 0.000000000000000000e+00 0.000000000000000000e+00 1.293771500000000067e-02 2.476783091999999797e+00 0.000000000000000000e+00 -8.109194000000000124e-02 1.313650829999999936e-01 1.334386026600000008e+01
3.975899274000000094e+00 0.000000000000000000e+00 0.000000000000000000e+00 -2.281632700000000083e-02 2.445257788000000154e+00 0.000000000000000000e+00 -4.231867289999999837e-01 3.048156000000000129e-02 1.579142879800000010e+01
4.027638637999999993e+00 0.000000000000000000e+00 0.000000000000000000e+00 6.688287599999999389e-02 2.538378805999999877e+00 0.000000000000000000e+00 -3.507413930000000124e-01 2.243986960000000086e-01 1.332573810000000059e+01
4.052559526999999662e+00 0.000000000000000000e+00 0.000000000000000000e+00 1.293771500000000067e-02 2.476783091999999797e+00 0.000000000000000000e+00 -8.109194000000000124e-02 1.313650829999999936e-01 1.334386026600000008e+01
4.147862961000000404e+00 0.000000000000000000e+00 0.000000000000000000e+00 -4.626590600000000247e-02 2.551684675000000180e+00 0.000000000000000000e+00 6.121099719999999467e-01 -4.390653990000000229e-01 2.171007955900000042e+01
4.349001252999999956e+00 0.000000000000000000e+00 0.000000000000000000e+00 2.614397200000000143e-02 2.734168157000000043e+00 0.000000000000000000e+00 -6.199137160000000035e-01 -2.829045150000000231e-01 2.189363479100000021e+01
4.119125238999999716e+00 0.000000000000000000e+00 0.000000000000000000e+00 1.852382699999999965e-02 2.508815515999999857e+00 0.000000000000000000e+00 -6.899221799999999405e-02 -1.700520879999999901e-01 1.708406553000000017e+01
4.208390879000000417e+00 0.000000000000000000e+00 0.000000000000000000e+00 -6.693209199999999859e-02 2.629406601999999982e+00 0.000000000000000000e+00 4.215079389999999981e-01 3.932854049999999768e-01 1.575153448999999917e+01
4.061037619000000376e+00 0.000000000000000000e+00 0.000000000000000000e+00 -1.816200000000000106e-02 2.417313275000000150e+00 0.000000000000000000e+00 -2.844136200000000128e-02 4.229573169999999993e-01 1.438682057800000003e+01
4.118727769000000372e+00 0.000000000000000000e+00 0.000000000000000000e+00 -4.279129000000000266e-02 2.523273575000000157e+00 0.000000000000000000e+00 -5.075811899999999738e-02 -2.042673939999999910e-01 2.232970831600000139e+01
4.008974921000000080e+00 0.000000000000000000e+00 0.000000000000000000e+00 3.409039400000000303e-02 2.462762008999999974e+00 0.000000000000000000e+00 -3.954108299999999770e-02 1.586462780000000017e-01 1.374898431199999926e+01
3.968563614999999878e+00 0.000000000000000000e+00 0.000000000000000000e+00 3.246642799999999857e-02 2.500895562000000183e+00 0.000000000000000000e+00 -3.791115760000000057e-01 -3.285378860000000012e-01 1.380680179800000040e+01
4.118727769000000372e+00 0.000000000000000000e+00 0.000000000000000000e+00 -4.279129000000000266e-02 2.523273575000000157e+00 0.000000000000000000e+00 -5.075811899999999738e-02 -2.042673939999999910e-01 2.232970831600000139e+01
4.271786308000000254e+00 0.000000000000000000e+00 0.000000000000000000e+00 -1.105093099999999995e-02 2.686171583999999779e+00 0.000000000000000000e+00 2.500188760000000010e-01 -1.689661869999999899e-01 1.645056402199999823e+01
4.286336240999999880e+00 0.000000000000000000e+00 0.000000000000000000e+00 -6.449288699999999874e-02 2.537020387000000099e+00 0.000000000000000000e+00 6.461759000000000079e-03 -1.869684269999999926e-01 1.598470908800000068e+01
4.394387529000000292e+00 0.000000000000000000e+00 0.000000000000000000e+00 7.849191999999999628e-03 2.700806212999999900e+00 0.000000000000000000e+00 8.641850500000000657e-02 4.172446129999999864e-01 1.639056334300000017e+01
4.255225975000000105e+00 0.000000000000000000e+00 0.000000000000000000e+00 -3.942282099999999678e-02 2.530339362999999953e+00 0.000000000000000000e+00 -5.319207199999999996e-02 -5.623247479999999854e-01 2.292325197999999986e+01
4.474987813000000259e+00 0.000000000000000000e+00 0.000000000000000000e+00 7.677689799999999620e-02 2.659230051000000206e+00 0.000000000000000000e+00 -4.379187079999999899e-01 2.326572640000000025e-01 1.535966423100000000e+01
4.008974921000000080e+00 0.000000000000000000e+00 0.000000000000000000e+00 3.409039400000000303e-02 2.462762008999999974e+00 0.000000000000000000e+00 -3.954108299999999770e-02 1.586462780000000017e-01 1.374898431199999926e+01
4.399291951000000367e+00 0.000000000000000000e+00 0.000000000000000000e+00 -2.231737400000000093e-02 2.696969573000000064e+00 0.000000000000000000e+00 3.213138420000000162e-01 -1.247538509999999989e-01 1.692863011900000103e+01
4.391984992000000254e+00 0.000000000000000000e+00 0.000000000000000000e+00 3.528966000000000047e-02 2.673809329000000012e+00 0.000000000000000000e+00 4.916849970000000125e-01 -1.794018830000000120e-01 2.330417254099999980e+01
4.133215500000000375e+00 0.000000000000000000e+00 0.000000000000000000e+00 -4.721013799999999871e-02 2.506155988000000168e+00 0.000000000000000000e+00 -2.520167429999999875e-01 -3.021482899999999860e-02 1.526815773899999940e+01
4.123894360000000425e+00 0.000000000000000000e+00 0.000000000000000000e+00 -9.100039999999999562e-04 2.436260321999999867e+00 0.000000000000000000e+00 1.934552459999999974e-01 -2.534720979999999790e-01 1.612290398800000091e+01
4.027638637999999993e+00 0.000000000000000000e+00 0.000000000000000000e+00 6.688287599999999389e-02 2.538378805999999877e+00 0.000000000000000000e+00 -3.507413930000000124e-01 2.243986960000000086e-01 1.332573810000000059e+01
4.118727769000000372e+00 0.000000000000000000e+00 0.000000000000000000e+00 -4.279129000000000266e-02 2.523273575000000157e+00 0.000000000000000000e+00 -5.075811899999999738e-02 -2.042673939999999910e-01 2.232970831600000139e+01
4.123894360000000425e+00 0.000000000000000000e+00 0.000000000000000000e+00 -9.100039999999999562e-04 2.436260321999999867e+00 0.000000000000000000e+00 1.934552459999999974e-01 -2.534720979999999790e-01 1.612290398800000091e+01
3.975899274000000094e+00 0.000000000000000000e+00 0.000000000000000000e+00 -2.281632700000000083e-02 2.445257788000000154e+00 0.000000000000000000e+00 -4.231867289999999837e-01 3.048156000000000129e-02 1.579142879800000010e+01
4.358952698999999598e+00 0.000000000000000000e+00 0.000000000000000000e+00 -7.431830400000000170e-02 2.774323927999999828e+00 0.000000000000000000e+00 -5.490018840000000511e-01 2.677334299999999945e-01 2.300333954399999925e+01
4.263709319000000164e+00 0.000000000000000000e+00 0.000000000000000000e+00 7.621180399999999411e-02 2.645114716999999782e+00 0.000000000000000000e+00 2.339825919999999893e-01 3.780663730000000111e-01 1.901599447499999940e+01
4.008974921000000080e+00 0.000000000000000000e+00 0.000000000000000000e+00 3.409039400000000303e-02 2.462762008999999974e+00 0.000000000000000000e+00 -3.954108299999999770e-02 1.586462780000000017e-01 1.374898431199999926e+01
4.216597263999999790e+00 0.000000000000000000e+00 0.000000000000000000e+00 -5.824488800000000160e-02 2.683362364000000166e+00 0.000000000000000000e+00 1.165088499999999971e-02 3.163787989999999883e-01 1.402363385499999993e+01
