1.189850000000000074e+00 1.892689999999999984e+00 9.692389999999999617e+00 1.502389999999999892e+00 4.491200000000000192e-01 7.897999999999999465e-01 3.036119999999999930e+00 1.499640000000000084e+00 8.112379999999999924e+00 3.310249999999999915e+00 7.891700000000000381e-01 1.052229999999999954e+01 3.564119999999999955e+00 9.996899999999999675e-01 4.397280000000000300e+00 1.436469999999999914e+00 2.063959999999999795e+00 5.095519999999999605e+00 1.451240000000000085e+00 1.593290000000000095e+00 2.897990000000000066e+00 3.121950000000000003e+00 2.337270000000000181e+00 6.362370000000000303e+00 1.306449999999999889e+00 2.281579999999999941e+00 1.176169999999999938e+01 3.501500000000000057e+00 2.003540000000000099e+00 1.300949999999999918e+01 9.568299999999999583e-01 2.127009999999999845e+00 7.303340000000000387e+00 3.589820000000000011e+00 1.208400000000000030e-01 1.862020000000000008e+00
1.743300000000000072e+00 4.767799999999999816e-01 3.137469999999999981e+00 1.859300000000000119e-01 1.493409999999999904e+00 1.097509999999999941e+01 3.793480000000000185e+00 3.175499999999999989e-01 6.344809999999999839e+00 2.947140000000000093e+00 1.049290000000000056e+00 1.343499999999999917e+00 3.763669999999999849e+00 2.054910000000000014e+00 8.801339999999999719e+00 2.205410000000000093e+00 5.755299999999999860e-01 9.974849999999999994e+00 1.833839999999999915e+00 1.271959999999999980e+00 5.293319999999999581e+00 2.067829999999999835e+00 2.044550000000000090e+00 1.219020000000000081e+01 7.070499999999999563e-01 2.353000000000000203e+00 1.114929999999999977e+00 3.536449999999999871e+00 1.956919999999999993e+00 3.640579999999999927e+00 2.490100000000000091e-01 7.076700000000000212e-01 1.271649999999999991e+01 1.813569999999999904e+00 2.661200000000000232e-01 7.492980000000000196e+00
2.057920000000000194e+00 6.633099999999999552e-01 1.390659999999999918e+01 3.022310000000000052e+00 4.683499999999999885e-01 1.983899999999999864e+01 1.874300000000000077e+00 1.713019999999999987e+00 9.182729999999999393e+00 1.295509999999999939e+00 1.822380000000000111e+00 6.970799999999999663e+00 3.376959999999999962e+00 1.142430000000000057e+00 5.558810000000000251e+00 1.959999999999999937e-03 1.154970000000000052e+00 1.028609999999999935e+01 8.511999999999999567e-01 2.164190000000000058e+00 4.630799999999999805e+00 3.647730000000000139e+00 1.807100000000000095e-01 7.786719999999999864e+00 1.428940000000000099e+00 3.042199999999999904e-01 1.846679999999999922e+01 6.479000000000000037e-02 1.922539999999999916e+00 1.266189999999999927e+01 1.031779999999999919e+00 9.305600000000000538e-01 2.090520000000000067e+01 2.043050000000000033e+00 1.755400000000000071e+00 1.161420000000000030e+01
3.438959999999999795e+00 1.496180000000000065e+00 3.145770000000000177e+00 1.690490000000000048e+00 4.277199999999999891e-01 1.938550000000000040e+01 -2.434600000000000097e-01 2.076909999999999812e+00 2.197299999999999898e+01 2.938320000000000043e+00 1.938630000000000075e+00 1.266230000000000011e+01 3.436960000000000015e+00 9.628799999999999581e-01 1.505209999999999937e+01 1.117739999999999956e+00 6.921000000000000485e-01 4.436130000000000351e+00 6.755999999999999783e-01 2.856339999999999879e+00 1.291699999999999982e+01 2.002810000000000201e+00 1.013649999999999940e+00 2.238370000000000104e+01 2.425850000000000062e+00 2.135619999999999852e+00 1.732929999999999993e+01 1.056950000000000056e+00 2.145550000000000068e+00 1.518219999999999992e+01 -2.495400000000000118e-01 8.810799999999999743e-01 1.737269999999999825e+01 3.439880000000000049e+00 1.958890000000000020e+00 5.162729999999999819e+00
9.514799999999999924e-01 1.131800000000000028e-01 2.349680000000000213e+00 3.877969999999999917e+00 2.339249999999999829e+00 7.095279999999999809e+00 6.411200000000000232e-01 1.698979999999999935e+00 4.262520000000000309e+00 3.126630000000000020e+00 1.061229999999999896e+00 2.143089999999999939e+00 1.920320000000000027e+00 2.334480000000000111e+00 1.522659999999999947e+01 1.658460000000000045e+00 6.593900000000000317e-01 7.807610000000000383e+00 3.793149999999999800e+00 1.435699999999999976e+00 1.691519999999999868e+01 1.812580000000000080e+00 -1.495999999999999934e-02 1.756279999999999930e+01 1.767570000000000086e+00 2.795599999999999752e-01 1.096069999999999922e+01 4.032169999999999810e+00 9.055900000000000061e-01 9.523809999999999221e+00 1.870049999999999990e+00 1.224730000000000096e+00 1.260260000000000069e+01 2.854880000000000084e+00 6.292400000000000215e-01 4.390189999999999593e+00
2.176120000000000054e+00 1.804040000000000088e+00 3.629980000000000206e+00 2.305369999999999919e+00 1.660609999999999919e+00 2.007199999999999918e+01 4.365600000000000036e-01 2.105840000000000156e+00 2.152980000000000160e+01 3.578899999999999970e+00 2.754370000000000207e+00 1.229729999999999990e+01 8.386099999999999666e-01 1.848219999999999974e+00 1.634840000000000160e+01 3.022000000000000033e-02 7.671200000000000241e-01 4.860739999999999839e+00 8.092700000000000449e-01 1.916169999999999929e+00 1.124510000000000076e+01 3.145939999999999959e+00 3.159199999999999786e-01 2.209489999999999910e+01 3.217870000000000008e+00 2.085710000000000175e+00 1.778709999999999880e+01 1.388500000000000068e+00 3.336799999999999766e-01 1.321330000000000027e+01 1.352070000000000105e+00 4.482400000000000273e-01 1.843669999999999831e+01 2.451109999999999900e+00 2.545619999999999994e+00 5.487040000000000362e+00
1.182760000000000034e+00 2.472999999999999851e-02 1.142420000000000080e+01 1.338780000000000081e+00 1.302640000000000020e+00 9.032400000000000873e+00 2.964770000000000127e+00 2.144330000000000069e+00 4.520400000000000418e+00 3.305369999999999919e+00 1.279770000000000074e+00 1.061359999999999992e+01 3.256520000000000081e+00 -6.281000000000000472e-02 8.611359999999999459e+00 9.409199999999999786e-01 8.782200000000000006e-01 5.445479999999999876e+00 3.020220000000000127e+00 1.226399999999999935e+00 6.836339999999999861e+00 9.284999999999999920e-01 1.985300000000000065e+00 2.869720000000000049e+00 1.596019999999999994e+00 2.410400000000000098e+00 3.840100000000000180e-01 3.342239999999999878e+00 1.229789999999999939e+00 1.330729999999999968e+01 1.001039999999999930e+00 2.261909999999999865e+00 6.996220000000000105e+00 2.857920000000000016e+00 8.764100000000000223e-01 2.067880000000000162e+00
2.098539999999999850e+00 1.004259999999999931e+00 4.867099999999999760e-01 1.970220000000000082e+00 2.259399999999999853e+00 3.708209999999999784e+00 7.931399999999999562e-01 1.269999999999999948e-02 1.086149999999999949e+01 1.392130000000000090e+00 2.422499999999999931e-01 1.270570000000000022e+01 1.884190000000000031e+00 1.707200000000000106e-01 6.128420000000000201e+00 3.987499999999999822e+00 1.708020000000000094e+00 6.849759999999999849e+00 2.966300000000000048e-01 1.112219999999999986e+00 2.327999999999999847e+00 4.206419999999999604e+00 2.116629999999999789e+00 9.060579999999999856e+00 2.841229999999999922e+00 9.598999999999999755e-01 1.056729999999999947e+01 1.732760000000000078e+00 6.836799999999999544e-01 8.712479999999999336e+00 4.147129999999999761e+00 6.175199999999999578e-01 4.644510000000000360e+00 -2.461500000000000077e-01 2.542990000000000084e+00 2.341140000000000043e+01
9.428999999999999604e-01 1.851469999999999949e+00 8.839219999999999189e+00 3.679980000000000029e+00 2.869999999999999774e-01 3.682400000000000118e-01 3.086320000000000174e+00 5.777400000000000313e-01 9.464990000000000236e+00 1.420619999999999994e+00 8.621400000000000174e-01 1.093389999999999951e+01 2.818810000000000038e+00 1.195699999999999957e-01 4.893519999999999648e+00 4.274399999999999866e-01 8.769799999999999818e-01 3.971319999999999961e+00 7.310100000000000486e-01 8.309999999999999332e-02 1.868530000000000024e+00 7.777199999999999669e-01 2.221560000000000201e+00 6.366640000000000299e+00 3.185389999999999944e+00 1.915689999999999893e+00 1.193859999999999921e+01 1.261560000000000015e+00 2.004830000000000112e+00 1.325859999999999950e+01 2.850610000000000088e+00 1.298750000000000071e+00 7.175959999999999894e+00 2.706170000000000186e+00 1.105399999999999938e+00 2.727160000000000029e+00
8.672199999999999909e-01 8.851499999999999924e-01 1.224269999999999925e+01 8.697300000000000031e-01 2.026060000000000194e+00 1.018640000000000079e+01 3.252270000000000216e+00 2.341209999999999791e+00 3.811949999999999950e+00 2.787500000000000089e+00 8.764800000000000368e-01 1.093030000000000079e+01 2.581910000000000149e+00 5.393999999999999906e-01 8.731379999999999697e+00 1.372079999999999966e+00 2.271560000000000024e+00 5.019389999999999574e+00 3.376110000000000166e+00 1.068629999999999969e+00 6.856519999999999726e+00 1.627960000000000074e+00 1.468450000000000033e+00 2.429530000000000189e+00 1.510590000000000099e+00 1.545139999999999958e+00 2.807899999999999840e-01 2.819399999999999906e+00 -1.638499999999999956e-01 1.284239999999999959e+01 1.097390000000000088e+00 2.075909999999999922e+00 7.252989999999999604e+00 3.572929999999999939e+00 6.229400000000000492e-01 1.524680000000000035e+00
1.839630000000000098e+00 7.789899999999999602e-01 8.551640000000000796e+00 1.858859999999999957e+00 1.495349999999999957e+00 4.231779999999999653e+00 6.594900000000000206e-01 2.205890000000000128e+00 2.011680000000000135e+01 3.538040000000000074e+00 2.056039999999999868e+00 1.824360000000000070e+01 3.669989999999999863e+00 2.234589999999999854e+00 1.017270000000000074e+01 3.969759999999999955e+00 1.339599999999999957e-01 3.945399999999999796e+00 2.734879999999999978e+00 1.219900000000000012e-01 6.443260000000000431e+00 2.032439999999999802e+00 7.345800000000000107e-01 1.141109999999999935e+01 8.412000000000000033e-02 2.433520000000000127e+00 1.269490000000000052e+01 2.484910000000000174e+00 5.492200000000000415e-01 2.022860000000000014e+01 1.505710000000000104e+00 9.158199999999999674e-01 1.399089999999999989e+01 5.904899999999999594e-01 1.417810000000000015e+00 6.733279999999999710e+00
1.115099999999999980e+00 1.435869999999999980e+00 1.411989999999999945e+01 1.261560000000000015e+00 2.254799999999999915e+00 8.021860000000000213e+00 2.030370000000000008e+00 7.579799999999999871e-01 2.383199999999999985e+00 4.089500000000000135e+00 3.261200000000000210e-01 1.262340000000000018e+01 1.298040000000000083e+00 7.758099999999999996e-01 5.187969999999999970e+00 3.933809999999999807e+00 2.032049999999999912e+00 1.532019999999999937e+00 4.362400000000000166e-01 7.800999999999999601e-02 1.052190000000000047e+01 3.824250000000000149e+00 2.291879999999999917e+00 3.865699999999999914e+00 3.076729999999999965e+00 1.094649999999999901e+00 8.888439999999999230e+00 2.548389999999999933e+00 1.390200000000000102e+00 1.119689999999999941e+01 2.932119999999999838e+00 1.464720000000000022e+00 1.483999999999999986e+01 3.208919999999999995e+00 1.053749999999999964e+00 6.405369999999999564e+00
1.127110000000000056e+00 1.402670000000000083e+00 1.131760000000000055e+01 2.854779999999999873e+00 2.767200000000000215e-01 5.558239999999999625e+00 3.244829999999999881e+00 1.752720000000000056e+00 1.187529999999999930e+01 2.636000000000000010e-01 1.068310000000000093e+00 1.753100000000000103e+00 3.681499999999999773e-01 1.636319999999999997e+00 9.693080000000000140e+00 2.191539999999999822e+00 1.840850000000000097e+00 3.354130000000000056e+00 2.358019999999999783e+00 1.318089999999999984e+00 1.003179999999999961e+00 9.049000000000000377e-01 2.597649999999999793e+00 7.384750000000000369e+00 2.407439999999999802e+00 3.546199999999999908e-01 9.491870000000000474e+00 4.232910000000000394e+00 2.355999999999999872e+00 8.699999999999999400e-03 5.593599999999999683e-01 1.776529999999999943e+00 4.772619999999999862e+00 3.107660000000000089e+00 1.677450000000000108e+00 7.964669999999999916e+00
1.026019999999999932e+00 2.668730000000000047e+00 5.318109999999999893e+00 3.317369999999999930e+00 9.359000000000000652e-02 2.336310000000000109e+00 1.129969999999999919e+00 1.324510000000000076e+00 3.216400000000000148e+00 2.596099999999999852e+00 8.187999999999999723e-01 1.045069999999999943e+01 2.541710000000000136e+00 1.020100000000000035e-01 8.458550000000000679e+00 3.820700000000000207e-01 9.443799999999999972e-01 7.011630000000000251e+00 2.158389999999999809e+00 1.049190000000000067e+00 1.233840000000000003e+01 2.278239999999999821e+00 4.224700000000000122e-01 5.308300000000000241e-01 5.369999999999999774e-03 1.844519999999999937e+00 1.160839999999999961e+01 5.540199999999999569e-01 2.008519999999999861e+00 9.402129999999999654e+00 -3.946799999999999753e-01 2.199840000000000018e+00 2.293530000000000157e+01 3.498330000000000162e+00 1.531490000000000018e+00 4.385600000000000165e+00
1.981090000000000018e+00 2.259119999999999795e+00 1.298010000000000019e+01 5.285300000000000553e-01 2.412520000000000220e+00 3.730150000000000077e+00 2.640470000000000095e+00 2.048700000000000188e+00 7.635419999999999874e+00 2.383989999999999831e+00 1.582060000000000022e+00 5.183169999999999611e+00 3.908900000000000041e+00 2.148670000000000080e+00 1.269030000000000102e+00 1.896349999999999980e+00 2.307300000000000129e+00 1.053619999999999912e+01 3.945269999999999833e+00 9.906000000000000361e-01 1.154540000000000077e+01 3.824829999999999952e+00 1.478620000000000045e+00 1.406579999999999941e+01 4.224639999999999951e+00 7.275500000000000300e-01 9.212049999999999628e+00 4.951400000000000245e-01 4.151000000000000245e-01 6.299240000000000173e+00 2.724460000000000104e+00 1.153010000000000090e+00 2.636699999999999822e+00 1.691340000000000066e+00 2.340000000000000066e-02 5.110500000000000043e-01
2.308969999999999967e+00 2.172070000000000167e+00 9.009439999999999671e+00 2.013099999999999890e-01 2.222919999999999785e+00 1.304340000000000011e+01 2.446599999999999886e-01 9.125799999999999468e-01 8.495520000000000849e+00 1.549000000000000030e-02 7.067099999999999493e-01 1.096630000000000038e+01 2.433520000000000127e+00 3.081800000000000095e-01 4.988819999999999588e+00 2.800900000000000056e-01 1.426309999999999967e+00 4.322549999999999670e+00 3.745530000000000026e+00 2.145599999999999952e+00 1.610559999999999992e+00 1.175340000000000051e+00 1.743319999999999981e+00 6.812369999999999592e+00 1.977030000000000065e+00 2.192579999999999973e+00 1.142060000000000031e+01 1.879299999999999971e+00 8.348400000000000265e-01 1.122779999999999889e+00 3.319030000000000147e+00 2.071390000000000065e+00 6.949629999999999974e+00 2.281569999999999876e+00 1.421249999999999902e+00 3.064680000000000071e+00
3.511810000000000098e+00 1.026750000000000052e+00 5.264319999999999666e+00 1.740699999999999914e+00 1.862540000000000084e+00 1.368629999999999924e+01 3.862670000000000048e+00 3.938499999999999779e-01 1.932140000000000057e+01 2.431350000000000122e+00 1.824570000000000025e+00 2.137890000000000068e+00 4.364399999999999946e-01 -2.659999999999999865e-02 3.676629999999999843e+00 1.952769999999999895e+00 1.939820000000000100e+00 2.020400000000000063e+01 2.469399999999999817e+00 1.055390000000000050e+00 1.041249999999999964e+01 3.829330000000000123e+00 2.759900000000000131e-01 1.429229999999999912e+01 2.838960000000000150e+00 1.236169999999999991e+00 8.613659999999999428e+00 1.005349999999999966e+00 3.394699999999999940e-01 7.497040000000000148e+00 2.445499999999999896e-01 -2.504799999999999804e-01 1.029509999999999970e+01 3.076599999999999890e-01 8.000999999999999779e-02 1.226369999999999960e+00
-2.013399999999999912e-01 8.400000000000000348e-04 1.329289999999999949e+01 1.567960000000000020e+00 7.071300000000000363e-01 9.307029999999999248e+00 2.038170000000000037e+00 1.324310000000000098e+00 3.263180000000000192e+00 -8.835999999999999410e-02 1.765149999999999997e+00 1.055219999999999914e+01 3.373069999999999791e+00 6.103999999999999704e-02 8.564569999999999794e+00 1.656460000000000043e+00 1.550100000000000033e+00 5.324650000000000105e+00 1.198050000000000059e+00 1.159499999999999975e-01 7.434389999999999610e+00 1.400299999999999878e-01 1.045699999999999963e-01 4.101910000000000167e+00 4.420399999999999885e-01 1.323730000000000073e+00 1.938520000000000021e+00 1.976569999999999938e+00 8.784999999999999754e-02 1.146219999999999928e+01 3.519690000000000207e+00 1.648449999999999971e+00 6.490029999999999966e+00 2.110599999999999810e+00 1.866149999999999975e+00 3.774500000000000077e-01
1.673300000000000010e+00 2.019120000000000026e+00 1.401849999999999952e+01 3.241540000000000088e+00 -5.034999999999999892e-02 2.078369999999999962e+01 1.910570000000000102e+00 1.507859999999999978e+00 9.077970000000000539e+00 2.326099999999999834e+00 1.621269999999999989e+00 6.671890000000000320e+00 3.510580000000000034e+00 6.517500000000000515e-01 5.179339999999999833e+00 3.911890000000000089e+00 1.808159999999999989e+00 1.019190000000000040e+01 1.306969999999999965e+00 1.803439999999999932e+00 4.377939999999999721e+00 1.095700000000000007e-01 5.036699999999999511e-01 7.532820000000000071e+00 2.832500000000000018e-01 7.223399999999999821e-01 1.872950000000000159e+01 4.049509999999999721e+00 4.157699999999999729e-01 1.311430000000000007e+01 9.137899999999999912e-01 1.881999999999999895e+00 2.072490000000000165e+01 1.714620000000000033e+00 1.337050000000000072e+00 1.140700000000000003e+01
2.903999999999999915e+00 2.492640000000000189e+00 4.143200000000000216e-01 2.157129999999999992e+00 2.601899999999999769e-01 7.844039999999999679e+00 1.652600000000000069e+00 2.075870000000000104e+00 5.017699999999999605e+00 2.875620000000000065e+00 1.267779999999999907e+00 1.463840000000000074e+01 3.750259999999999927e+00 1.728189999999999893e+00 1.311340000000000039e+01 4.215840000000000032e+00 9.889000000000000012e-01 4.711940000000000239e+00 4.347819999999999574e+00 2.369130000000000180e+00 6.840650000000000119e+00 1.520869999999999944e+00 3.890600000000000169e-01 2.020669999999999966e+00 3.809009999999999785e+00 1.953989999999999894e+00 2.499859999999999971e+00 6.347300000000000164e-01 1.438660000000000050e+00 9.882379999999999498e+00 2.911849999999999827e+00 2.553690000000000015e+00 9.750049999999999883e+00 1.573490000000000055e+00 6.907600000000000406e-01 1.228700000000000081e+01
1.973670000000000035e+00 1.785709999999999908e+00 3.298329999999999984e+00 4.076050000000000395e+00 7.488999999999999824e-02 1.128509999999999991e+01 3.821979999999999933e+00 1.804389999999999938e+00 6.186480000000000423e+00 1.242000000000000048e-01 1.714550000000000018e+00 1.868130000000000068e+00 1.769640000000000102e+00 4.321699999999999986e-01 7.277910000000000323e+00 2.293550000000000200e+00 5.802000000000000213e-02 9.709070000000000533e+00 2.183860000000000134e+00 1.952839999999999909e+00 5.140539999999999665e+00 2.077160000000000117e+00 8.788300000000000001e-01 1.174440000000000062e+01 2.050009999999999888e+00 2.155299999999999994e-01 7.741700000000000248e-01 2.833700000000000108e-01 5.890300000000000535e-01 3.970950000000000202e+00 3.068199999999999816e-01 1.240760000000000085e+00 1.328400000000000070e+01 3.942200000000000149e+00 1.313080000000000025e+00 8.486409999999999343e+00
1.996779999999999999e+00 3.748400000000000065e-01 1.517800000000000082e+01 2.134000000000000133e-02 2.170539999999999914e+00 1.450300000000000011e+01 1.739209999999999923e+00 5.728199999999999958e-01 7.797659999999999592e+00 1.989090000000000025e+00 4.865499999999999825e-01 1.286969999999999992e+01 3.907340000000000035e+00 2.137789999999999857e+00 9.131679999999999353e+00 7.388799999999999812e-01 2.402900000000000036e-01 3.869450000000000056e+00 -5.240999999999999825e-02 1.597259999999999902e+00 5.991640000000000299e+00 2.160029999999999895e+00 1.492560000000000109e+00 5.697759999999999714e+00 3.947999999999999843e-01 2.010099999999999998e+00 1.169599999999999973e+01 2.865340000000000220e+00 1.479819999999999913e+00 2.772839999999999971e+00 8.477000000000000091e-01 1.645799999999999930e+00 1.477929999999999966e+00 2.122720000000000162e+00 6.141199999999999992e-01 1.036640000000000050e+01
2.103779999999999983e+00 1.884789999999999965e+00 4.957429999999999559e+00 7.550299999999999789e-01 2.218140000000000001e+00 4.222899999999999987e-01 3.960160000000000124e+00 6.529399999999999649e-01 4.681259999999999977e+00 2.786259999999999959e+00 1.010690000000000088e+00 1.535209999999999964e+00 3.180260000000000087e+00 7.306200000000000472e-01 9.134850000000000136e+00 7.991399999999999615e-01 1.858430000000000026e+00 2.777309999999999945e+00 3.930299999999999905e+00 2.209499999999999797e+00 6.812529999999999752e+00 3.476379999999999804e+00 2.047719999999999985e+00 1.128059999999999974e+01 1.418190000000000062e+00 2.002979999999999983e+00 1.021570000000000000e+01 3.310070000000000068e+00 1.696909999999999918e+00 2.090889999999999915e+01 1.511710000000000109e+00 1.094799999999999995e+00 1.246589999999999954e+01 2.167749999999999844e+00 2.190360000000000085e+00 7.526889999999999858e+00
2.097400000000000098e-01 4.879800000000000249e-01 1.944350000000000023e+00 1.064249999999999918e+00 6.515199999999999880e-01 1.117890000000000050e+01 3.931179999999999897e+00 5.699300000000000477e-01 5.907790000000000319e+00 1.859129999999999949e+00 9.623000000000000442e-01 2.813349999999999795e+00 2.747900000000000009e+00 2.218550000000000022e+00 7.584529999999999994e+00 2.584890000000000132e+00 2.372910000000000075e+00 9.885049999999999670e+00 1.935670000000000002e+00 1.730010000000000048e+00 5.393139999999999823e+00 2.842960000000000154e+00 1.818030000000000035e+00 1.200820000000000043e+01 2.544599999999999973e+00 1.210579999999999989e+00 7.190299999999999470e-01 3.489970000000000017e+00 2.028189999999999937e+00 3.675559999999999938e+00 8.713800000000000434e-01 1.972290000000000099e+00 1.350956000000000046e+01 7.093099999999999961e-01 1.053290000000000060e+00 8.406119999999999592e+00
2.969349999999999934e+00 5.911100000000000243e-01 4.993839999999999613e+00 3.484900000000000220e-01 -8.454000000000000403e-02 6.449119999999999742e+00 2.409600000000000075e-01 4.312400000000000122e-01 1.526099999999999923e+01 1.058310000000000084e+00 1.302950000000000053e+00 1.234199999999999964e+00 9.032599999999999518e-01 5.933199999999999585e-01 3.501469999999999860e+00 3.594390000000000196e+00 9.374700000000000255e-01 1.218939999999999912e+01 2.603880000000000194e+00 -4.449999999999999963e-03 1.034120000000000061e+01 3.169950000000000045e+00 1.372299999999999909e-01 2.059719999999999995e+00 4.171199999999999908e-01 1.054799999999999960e+00 9.052089999999999748e+00 2.519660000000000011e+00 1.496300000000000130e-01 1.560790000000000077e+01 2.268800000000000150e+00 1.164660000000000029e+00 7.966870000000000118e+00 1.734569999999999945e+00 1.872759999999999980e+00 1.353759999999999941e+01
2.911179999999999879e+00 1.522569999999999979e+00 9.266899999999999693e+00 1.865339999999999998e+00 5.249099999999999877e-01 1.331119999999999948e+01 2.336910000000000043e+00 8.524199999999999555e-01 1.230699999999999905e+00 3.330000000000000321e-02 1.039420000000000011e+00 4.601829999999999643e+00 4.293590000000000018e+00 2.150780000000000136e+00 2.127639999999999887e+01 4.240249999999999631e+00 1.522059999999999969e+00 1.425619999999999976e+01 2.184470000000000134e+00 6.685600000000000431e-01 6.092109999999999914e+00 3.693459999999999965e+00 1.012799999999999923e+00 1.237739999999999974e+01 2.708800000000000097e-01 2.080769999999999786e+00 7.052719999999999878e+00 1.847329999999999917e+00 7.951000000000000290e-01 2.071189999999999998e+01 4.003099999999999992e-01 1.995640000000000081e+00 2.368539999999999868e+00 2.465240000000000098e+00 4.417000000000000093e-02 3.808240000000000069e+00
3.852230000000000043e+00 9.828200000000000269e-01 9.612500000000000488e-01 1.607529999999999903e+00 1.946700000000000097e+00 9.615000000000000213e+00 3.716930000000000067e+00 2.598199999999999843e+00 6.221829999999999750e+00 3.213470000000000049e+00 1.999929999999999986e+00 8.592090000000000671e+00 1.961510000000000087e+00 7.474199999999999733e-01 4.987580000000000346e+00 1.264000000000000019e-02 1.977519999999999945e+00 4.105400000000000382e+00 1.894770000000000065e+00 1.969139999999999890e+00 1.492360000000000042e+01 1.616260000000000030e+00 1.613089999999999913e+00 1.242249999999999943e+01 1.199729999999999963e+00 9.631399999999999961e-01 7.740829999999999878e+00 1.647299999999999875e-01 2.682249999999999801e+00 1.087819999999999965e+01 3.431810000000000027e+00 2.678339999999999943e+00 1.332620000000000005e+01 2.041879999999999917e+00 1.992990000000000039e+00 2.694170000000000176e+00
1.602419999999999956e+00 1.649920000000000053e+00 1.646900000000000119e+01 9.555299999999999905e-01 1.148760000000000003e+00 9.659050000000000580e+00 1.628030000000000088e+00 1.144789999999999974e+00 1.397589999999999932e+01 2.289779999999999927e+00 2.345180000000000042e+00 1.163739999999999952e+01 1.619599999999999929e-01 1.078840000000000021e+00 1.244749999999999979e+01 9.803600000000000092e-01 5.718600000000000350e-01 3.980939999999999923e+00 3.657859999999999889e+00 1.899389999999999912e+00 1.480480000000000018e+01 3.201400000000000023e+00 2.330020000000000202e+00 9.086259999999999337e+00 3.364290000000000003e+00 1.170590000000000019e+00 3.801060000000000105e+00 3.673560000000000159e+00 2.767999999999999905e-01 5.925620000000000331e+00 2.786669999999999980e+00 2.191279999999999895e+00 1.657909999999999995e+00 1.300199999999999967e-01 7.238499999999999934e-01 4.852500000000000147e-01
2.352040000000000131e+00 1.030980000000000008e+00 6.506910000000000416e+00 9.968200000000000394e-01 1.089799999999999935e-01 2.261550000000000171e+00 3.050700000000000078e-01 2.005500000000000060e-01 7.746500000000000163e+00 8.042799999999999949e-01 4.400399999999999867e-01 1.095749999999999957e+01 2.138299999999999923e-01 1.230720000000000036e+00 5.249950000000000117e+00 3.091019999999999879e+00 1.927019999999999955e+00 9.555500000000000105e-01 2.172419999999999796e+00 2.237070000000000114e+00 4.445009999999999906e+00 2.400869999999999838e+00 1.378710000000000102e+00 1.131039999999999957e+01 1.215119999999999978e+00 2.471379999999999910e+00 1.352089999999999925e+01 8.054099999999999593e-01 1.457009999999999916e+00 1.558029999999999937e+01 3.182240000000000180e+00 1.400360000000000049e+00 1.408569999999999922e+01 2.608979999999999855e+00 1.313250000000000028e+00 8.916100000000000136e+00
3.533749999999999947e+00 1.416600000000000081e+00 1.299000000000000021e+01 1.464990000000000014e+00 1.730679999999999996e+00 1.011050000000000004e+01 1.833369999999999944e+00 -5.535000000000000336e-02 2.410289999999999822e+00 3.327370000000000161e+00 3.202099999999999946e-01 1.078979999999999961e+01 -2.095899999999999985e-01 4.616299999999999848e-01 8.710919999999999774e+00 2.060760000000000147e+00 2.170290000000000052e+00 5.210160000000000124e+00 2.020760000000000112e+00 2.218490000000000073e+00 7.644280000000000186e+00 2.234899999999999942e-01 9.072599999999999554e-01 3.962590000000000057e+00 3.922759999999999803e+00 5.594999999999999973e-01 1.308149999999999924e+00 1.604090000000000016e+00 6.029700000000000060e-01 1.220800000000000018e+01 -7.206999999999999518e-02 1.283349999999999991e+00 6.475459999999999994e+00 2.024280000000000079e+00 1.440520000000000023e+00 2.888999999999999901e-01
1.237700000000000022e+00 2.422610000000000152e+00 7.079430000000000334e+00 1.753579999999999917e+00 2.745299999999999963e-01 2.100969999999999871e+01 2.776819999999999844e+00 4.471600000000000019e-01 1.530489999999999995e+01 3.634459999999999802e+00 1.650989999999999958e+00 3.493609999999999882e+00 3.406519999999999992e+00 1.226029999999999953e+00 8.359920000000000684e+00 7.204000000000000403e-01 1.798380000000000090e+00 1.507039999999999935e+00 3.906930000000000014e+00 1.488059999999999938e+00 2.122309999999999874e+01 1.911859999999999893e+00 1.204100000000000031e-01 4.650999999999999801e+00 3.896999999999999909e-01 1.514399999999999968e+00 1.539710000000000001e+01 3.828339999999999854e+00 1.222779999999999978e+00 5.741249999999999964e+00 3.039829999999999810e+00 5.476299999999999502e-01 9.738400000000000389e-01 1.714460000000000095e+00 1.372360000000000024e+00 9.861520000000000508e+00
6.978400000000000158e-01 3.108699999999999797e-01 1.803700000000000081e+00 3.421479999999999855e+00 4.698700000000000099e-01 4.502889999999999837e+00 3.814600000000000213e-01 1.829809999999999937e+00 9.441290000000000404e+00 2.471159999999999801e+00 7.975499999999999812e-01 8.350000000000000477e-02 1.602079999999999949e+00 1.386929999999999996e+00 4.852280000000000371e+00 2.621389999999999887e+00 4.261199999999999988e-01 8.658839999999999648e+00 1.460320000000000062e+00 1.605790000000000051e+00 1.117409999999999926e+01 6.719600000000000017e-01 9.813899999999999846e-01 6.816629999999999967e+00 3.472999999999999976e-01 2.043849999999999945e+00 1.796599999999999864e-01 3.601090000000000124e+00 5.726499999999999924e-01 1.171780000000000044e+01 2.813200000000000145e+00 1.680290000000000061e+00 2.447709999999999830e+00 2.619120000000000115e+00 1.720650000000000013e+00 6.776089999999999947e+00
2.276370000000000005e+00 1.463319999999999954e+00 3.014060000000000183e+00 3.213010000000000144e+00 1.384530000000000038e+00 1.071679999999999922e+01 3.677620000000000111e+00 3.300500000000000100e-01 6.382799999999999585e+00 3.859059999999999935e+00 9.198300000000000365e-01 1.607639999999999958e+00 3.730570000000000164e+00 7.939599999999999991e-01 8.775069999999999482e+00 1.441429999999999989e+00 2.269730000000000025e+00 1.010449999999999982e+01 2.415340000000000042e+00 1.777700000000000058e+00 5.073339999999999961e+00 1.410169999999999924e+00 8.209499999999999575e-01 1.200890000000000057e+01 1.484690000000000065e+00 1.325669999999999904e+00 7.298499999999999988e-01 2.352700000000000069e-01 2.486099999999999977e-01 3.974819999999999798e+00 3.302360000000000184e+00 1.970730000000000093e+00 1.318890000000000029e+01 1.777979999999999894e+00 1.262599999999999945e+00 7.448889999999999567e+00