1.432839999999999947e-01 -3.026690000000000214e-01 -2.522803999999999824e+00 7.212269999999999515e-01 6.254610000000000447e-01 -1.403963999999999990e+00 -5.695139999999999647e-01 -3.275490000000000013e+00 7.039896999999999849e+00 -5.631369999999999987e-01 -2.173889999999999989e-01 6.470519999999999605e-01 -7.203479999999999883e-01 -3.157719999999999971e-01 -1.935171999999999892e+00 -1.156762999999999986e+00 3.531000000000000250e-01 -1.185029000000000110e+00 6.662930000000000241e-01 -4.178749999999999964e-01 -3.579120000000000079e-01 3.622130000000000072e-01 3.007690000000000197e+00 -4.934084000000000358e+00 1.104314999999999936e+00 5.502839999999999954e-01 1.927405999999999953e+00 -1.154543000000000097e+00 -8.427740000000000231e-01 -3.537980000000000014e-01 2.232429999999999914e+00 6.152929999999999788e-01 1.499822999999999906e+00 -1.065458999999999934e+00 2.201420000000000043e-01 1.578584999999999905e+00
-2.431154999999999955e+00 2.733889999999999931e-01 2.807270000000000043e-01 -5.350080000000000391e-01 2.462136000000000102e+00 -6.252425999999999817e+00 2.819670000000000232e-01 -2.053989999999999982e-01 -9.130730000000000235e-01 -2.587031000000000081e+00 5.244779999999999998e-01 -6.157019999999999715e-01 1.226374000000000075e+00 -4.755090000000000150e-01 -1.921791000000000027e+00 -1.586219999999999963e+00 1.639960000000000029e-01 1.127340000000000009e-01 -4.665409999999999835e-01 8.855290000000000106e-01 3.127750000000000252e-01 2.041377000000000219e+00 8.528000000000000858e-03 7.148130000000000317e-01 3.237324000000000090e+00 -8.787629999999999608e-01 1.131469999999999976e-01 2.265768000000000004e+00 -6.019489999999999563e-01 8.968159999999999465e-01 -1.393235999999999919e+00 -2.146802000000000099e+00 6.142180999999999891e+00 -5.361799999999999899e-02 -9.632999999999999202e-03 1.129798999999999998e+00
1.231440000000000035e-01 -8.355400000000000327e-02 -7.334899999999999753e-01 2.704635000000000122e+00 -1.277369999999999894e-01 1.270785999999999971e+00 1.030993000000000048e+00 1.823869999999999936e-01 1.909180000000000044e-01 8.333159999999999457e-01 -4.751029999999999975e-01 -1.096894999999999953e+00 -1.535036000000000067e+00 -5.867040000000000033e-01 3.620369999999999977e-01 -1.428816000000000086e+00 -7.766870000000000163e-01 3.139199999999999768e-01 1.489962999999999926e+00 8.061500000000000332e-01 -5.626729999999999787e-01 -5.649680000000000257e-01 5.195419999999999483e-01 8.219929999999999737e-01 -2.008477000000000068e+00 -3.543520000000000003e-01 -1.019328999999999930e+00 -1.159810000000000008e+00 3.076599999999999890e-01 1.013538999999999968e+00 -6.907550000000000079e-01 4.827560000000000184e-01 -3.087070000000000092e-01 1.205810000000000048e+00 1.056419999999999998e-01 -2.520979999999999888e-01
-1.436040000000000094e-01 -7.019440000000000124e-01 -2.455443999999999960e+00 -7.796500000000000652e-02 2.125440000000000107e-01 6.705099999999999949e-02 3.243929999999999869e-01 4.775119999999999920e-01 -1.267189999999999983e-01 -6.313360000000000083e-01 -6.680930000000000479e-01 5.416969999999999841e-01 -1.099636000000000058e+00 -6.305159999999999654e-01 -5.126429999999999598e-01 4.840969999999999995e-01 -2.256340000000000012e-01 -1.044339999999999991e-01 4.418520000000000225e-01 1.008974000000000038e+00 1.492149999999999865e-01 -2.587470000000000048e-01 -4.764349999999999974e-01 -4.957059999999999800e-01 -3.652404000000000206e+00 4.484199999999999853e-01 -1.839419999999999944e-01 8.858700000000000463e-01 3.008719999999999728e-01 3.505659999999999887e-01 4.082614999999999661e+00 -6.722599999999999687e-01 4.511519999999999975e-01 -3.551340000000000052e-01 9.265600000000000502e-01 2.319207000000000019e+00
2.463309999999999944e-01 2.372750000000000137e-01 -1.653372000000000064e+00 -3.776680000000000037e-01 -4.665489999999999915e-01 -9.054299999999999848e-02 -3.288719999999999977e-01 -4.019179999999999975e-01 1.991957999999999895e+00 1.072609999999999952e-01 8.601490000000000524e-01 -1.171761000000000053e+00 9.409099999999999409e-02 -4.739000000000000157e-03 -5.947750000000000536e-01 4.135759999999999992e-01 4.102720000000000256e-01 3.123389999999999778e-01 5.186640000000000139e-01 -2.513619999999999743e-01 -4.952000000000000152e-02 -5.134750000000000147e-01 2.942000000000000171e-01 6.446730000000000516e-01 -4.063080000000000025e-01 -3.311997999999999998e+00 -7.250716999999999857e+00 -8.079300000000000370e-02 1.874180000000000013e-01 -3.615249999999999853e-01 4.516350000000000087e-01 3.127301000000000109e+00 7.238539000000000279e+00 -1.244399999999999951e-01 -6.800490000000000146e-01 9.847040000000000237e-01
-5.857489999999999641e-01 -1.567085000000000061e+00 -2.887150999999999801e+00 1.006936000000000053e+00 3.610499999999999821e-01 1.188193000000000055e+00 2.701484999999999914e+00 -1.387550999999999979e+00 -9.224170000000000424e-01 -2.976700999999999819e+00 1.035552000000000028e+00 1.026933000000000096e+00 2.465459999999999874e-01 -1.016819999999999946e-01 -8.950800000000000423e-02 1.515705000000000080e+00 7.917260000000000408e-01 -6.548410000000000064e-01 2.288084000000000007e+00 -1.647342000000000084e+00 -1.222992000000000079e+00 -3.090898000000000145e+00 1.542083000000000093e+00 4.281469999999999998e-01 7.137059999999999516e-01 -2.175759999999999916e-01 -1.516490000000000060e-01 6.221060000000000478e-01 6.083140000000000214e-01 7.732470000000000176e-01 -1.512942000000000009e+00 -1.921819999999999917e-01 -9.805390000000000494e-01 -9.282770000000000188e-01 7.746910000000000185e-01 3.492574999999999985e+00
7.731740000000000279e-01 -1.595600000000000143e-02 9.517400000000000304e-01 -4.047299999999999787e-01 -9.721279999999999921e-01 1.774958999999999953e+00 -1.880769999999999942e-01 2.025810000000000111e-01 -7.442990000000000439e-01 -7.445910000000000029e-01 -1.801099999999999923e-01 1.293093000000000048e+00 3.120729999999999893e-01 9.634249999999999758e-01 2.349985000000000213e+00 2.737999999999999878e-01 1.826160999999999923e+00 -9.317572000000000187e+00 -1.553182999999999980e+00 -1.231031999999999904e+00 -2.964608000000000132e+00 -2.351540000000000019e-01 2.828390000000000071e-01 5.155159999999999743e-01 5.881180000000000296e-01 5.287920000000000398e-01 -7.100000000000000191e-04 -1.224650999999999934e+00 -8.247039999999999926e-01 -1.023088999999999915e+00 1.431113999999999997e+00 -5.631990000000000052e-01 7.004876999999999576e+00 9.721060000000000256e-01 -1.667199999999999932e-02 1.601069999999999993e-01
4.308679999999999732e-01 2.453480000000000105e-01 2.113810000000000133e-01 3.171059999999999990e-01 -1.659760000000000124e-01 -6.296499999999999320e-02 -1.517962999999999951e+00 -7.793039999999999967e-01 -2.428672000000000164e+00 1.833072999999999952e+00 7.257160000000000277e-01 4.730290000000000106e+00 -1.247140000000000054e-01 2.463660000000000017e-01 9.747699999999999421e-02 1.391570000000000029e-01 -3.805410000000000181e-01 -8.316189999999999971e-01 -3.532989999999999742e-01 1.998300000000000076e-02 -7.208830000000000515e-01 -2.129969000000000001e+00 -4.557559999999999945e-01 -1.594387999999999916e+00 1.255924000000000040e+00 7.388860000000000428e-01 2.387433000000000138e+00 6.712679999999999758e-01 1.816069999999999907e-01 -2.635412000000000088e+00 -2.054249999999999965e-01 -9.783799999999999442e-02 3.358499999999999680e-02 -3.160259999999999736e-01 -2.784920000000000173e-01 8.137729999999999686e-01
7.558789999999999676e-01 1.441929999999999878e-01 -1.030707999999999958e+00 -9.778048999999999324e+00 4.449442999999999593e+00 -1.937095000000000011e+00 2.429830000000000045e-01 -3.261189999999999922e-01 3.851999999999999869e-02 -2.297118999999999911e+00 -4.559320000000000039e-01 8.302380000000000315e-01 -3.501355999999999913e+00 -1.573298000000000085e+00 2.193073000000000050e+00 4.960403999999999591e+00 1.684736000000000011e+00 6.905149999999999899e-01 4.499502999999999808e+00 -1.203983000000000025e+00 7.680474000000000245e+00 4.078390000000000071e-01 5.052860000000000129e-01 -5.047760000000000025e-01 8.990860000000000518e-01 -9.248049999999999882e-01 -3.966368000000000116e+00 5.463568999999999676e+00 -2.895271000000000150e+00 -2.779554000000000080e+00 -2.808769999999999878e-01 -4.278460000000000041e-01 2.324029999999999985e-01 -1.371863000000000055e+00 1.023595000000000033e+00 -1.446720999999999924e+00
-1.829884000000000066e+00 -1.043072999999999917e+00 -6.662155000000000271e+00 -7.662120000000000042e-01 3.163190000000000168e-01 -1.724137999999999948e+00 1.653839999999999977e+00 3.166740000000000110e-01 3.288000000000000124e-03 9.328349999999999698e-01 7.145569999999999977e-01 -1.283093999999999957e+00 -1.413500000000000034e-01 -5.971969999999999779e-01 1.577393000000000045e+00 -6.495950000000000335e-01 1.167229999999999934e-01 -1.343429999999999902e-01 -3.677391000000000076e+00 -8.530950000000000477e-01 -4.263537999999999606e+00 -1.105575999999999892e+00 1.541440000000000032e-01 2.818407000000000107e+00 4.940869999999999984e-01 1.735313000000000105e+00 5.777880999999999823e+00 1.065650999999999904e+00 -1.250718999999999914e+00 2.579140000000000210e+00 3.864301999999999904e+00 1.149774999999999991e+00 1.930072000000000010e+00 1.592919999999999892e-01 -7.594199999999999839e-01 -6.189139999999999642e-01
3.998110000000000275e-01 -9.692699999999999927e-02 1.444055000000000089e+00 -1.755069999999999963e-01 -1.820319999999999994e-01 3.489459999999999784e-01 -3.154287000000000063e+00 -1.608047000000000004e+00 2.538899999999999837e-02 -3.750629999999999797e-01 -2.020649999999999946e-01 6.684400000000000064e-02 7.037269999999999914e-01 -3.721740000000000048e-01 -5.323719999999999564e-01 1.875729999999999897e-01 1.478909999999999947e-01 6.031220000000000470e-01 1.115659999999999985e-01 -1.928870000000000029e-01 -5.783329999999999860e-01 -4.881840000000000068e-01 4.929870000000000085e-01 2.736859999999999848e-01 -1.525389000000000106e+00 -8.391070000000000473e-01 -1.184655000000000014e+00 3.530818000000000012e+00 1.810680000000000067e+00 -1.808520000000000127e-01 1.257864000000000093e+00 6.738429999999999698e-01 4.706359999999999988e-01 -4.729300000000000170e-01 3.678359999999999963e-01 -7.564659999999999718e-01
-2.231145999999999852e+00 4.449609999999999954e-01 5.532979999999999565e-01 -1.213246999999999964e+00 6.667700000000000016e-02 -1.082829999999999959e+00 -7.342819999999999903e-01 3.080809999999999937e-01 4.512630000000000252e-01 -1.697516000000000025e+00 -4.752770000000000050e-01 6.248399999999999788e-02 1.439014000000000015e+00 5.824669999999999570e-01 8.953640000000000487e-01 1.302310999999999996e+00 2.107769999999999921e-01 -3.493769999999999931e-01 2.526749000000000134e+00 -1.502489999999999937e-01 -2.493351000000000095e+00 -1.799806000000000017e+00 -9.539809999999999679e-01 -6.484529999999999461e-01 6.163530000000000397e-01 6.150400000000000311e-02 -4.677939999999999876e-01 -2.415532999999999930e+00 -1.136849999999999944e-01 7.732940000000000369e-01 3.586275999999999797e+00 -2.856799999999999895e-01 1.712630000000000097e+00 6.208249999999999602e-01 3.044080000000000119e-01 5.934700000000000530e-01
3.711676999999999893e+00 -1.960557000000000105e+00 9.962092000000000169e+00 -2.942190000000000083e-01 3.397769999999999957e-01 2.158160000000000078e-01 8.301920000000000410e-01 5.726529999999999676e-01 -1.064139999999999947e-01 -2.956300000000000039e-01 -5.898440000000000349e-01 3.080764999999999976e+00 -5.048943000000000403e+00 1.555763999999999925e+00 -9.671644999999999825e+00 1.696658999999999917e+00 2.466659999999999964e-01 -9.696540000000000159e-01 2.876330000000000275e-01 -2.438319999999999932e-01 -7.685309999999999642e-01 -3.211499999999999772e-02 6.206190000000000317e-01 -5.675189999999999957e-01 -6.140200000000000102e-01 -3.170009999999999772e-01 3.556420999999999832e+00 7.030300000000000438e-02 5.635919999999999819e-01 -1.839307999999999943e+00 -1.353634999999999922e+00 -3.170939999999999870e-01 1.388684000000000029e+00 1.042100000000000026e+00 -4.707419999999999938e-01 -4.280706999999999596e+00
1.406722999999999946e+00 -8.239069999999999450e-01 -1.796780000000000044e+00 1.367315999999999976e+00 -5.850889999999999702e-01 1.765965999999999925e+00 9.213440000000000518e-01 -6.160299999999999804e-02 -9.027840000000000309e-01 9.504129999999999523e-01 -2.215669999999999862e-01 -3.341868999999999978e+00 7.672219999999999596e-01 -6.171830000000000371e-01 -3.033533999999999953e+00 -9.080270000000000286e-01 1.206215999999999955e+00 2.405771999999999800e+00 -1.175265999999999922e+00 2.670600000000000196e-01 5.285662000000000305e+00 -1.146030000000000104e+00 7.401969999999999938e-01 -2.170765999999999973e+00 2.307089999999999974e-01 8.092110000000000136e-01 1.118552999999999908e+00 -8.651419999999999666e-01 -2.179020000000000123e-01 -9.907030000000000003e-01 -3.794299999999999895e-01 -2.007180000000000075e-01 8.622779999999999889e-01 -1.169832999999999901e+00 -2.947150000000000047e-01 7.982059999999999711e-01
-9.203360000000000429e-01 4.716110000000000024e-01 -1.200120999999999993e+00 3.067540000000000266e-01 2.595540000000000069e-01 3.765299999999999758e-01 -5.967139999999999667e-01 -2.429499999999999993e-01 3.019640000000000102e-01 4.445219999999999727e-01 -8.138600000000000001e-02 -1.872790000000000010e-01 -1.915694999999999926e+00 5.336779999999999857e-01 1.839711000000000096e+00 6.103920000000000456e-01 -3.373880000000000212e-01 -4.547849999999999948e-01 -5.734000000000000208e-02 8.852999999999999758e-02 8.130349999999999522e-01 1.055492000000000097e+00 -1.520510000000000028e+00 -1.861479000000000106e+00 -2.326989999999999892e-01 2.442950000000000121e-01 -9.979749999999999455e-01 4.696399999999999880e-02 1.636569999999999969e-01 1.625149999999999928e-01 -2.947607999999999784e+00 -1.495082999999999940e+00 2.597335999999999867e+00 4.206269999999999953e+00 1.915993000000000057e+00 -1.389450999999999992e+00
-5.627879999999999550e-01 3.188599999999999768e-02 1.513160999999999978e+00 5.251850000000000129e-01 -5.733880000000000088e-01 -3.644919999999999938e+00 4.829720000000000124e-01 -1.398589000000000082e+00 4.725900000000000212e+00 -1.031954999999999956e+00 1.199397000000000046e+00 -1.465443999999999969e+00 -1.239784999999999915e+00 -4.223899999999999877e-02 9.765359999999999596e-01 8.474429999999999463e-01 2.961309999999999776e-01 2.122940000000000105e-01 1.872451000000000088e+00 5.499370000000000092e-01 4.047987000000000002e+00 5.427109999999999879e+00 -6.989959999999999507e-01 -3.219659000000000049e+00 1.226873000000000102e+00 -8.334270000000000289e-01 6.410430000000000295e-01 -1.896144999999999969e+00 -7.282180000000000319e-01 -3.758672999999999931e+00 -4.864977999999999803e+00 1.428387999999999991e+00 -1.952444000000000068e+00 -7.863839999999999719e-01 7.691179999999999684e-01 1.924220000000000041e+00
-5.078740000000000476e-01 5.557689999999999575e-01 1.114845000000000086e+00 -1.404370000000000063e-01 -4.391030000000000211e-01 -2.105399999999999980e-02 6.251039999999999930e-01 4.863230000000000053e-01 3.457810000000000050e-01 2.335750000000000048e-01 -6.960100000000000176e-01 7.404439999999999911e-01 4.658930000000000016e-01 -4.478400000000000158e-01 -7.763259999999999605e-01 2.320589999999999875e-01 -2.291970000000000118e-01 -6.457089999999999774e-01 -2.433419000000000221e+00 -1.003136999999999945e+00 9.206509000000000498e+00 1.381469999999999920e-01 4.436539999999999928e-01 -4.167159999999999753e-01 2.588102999999999820e+00 1.359018000000000059e+00 -8.948344000000000520e+00 -8.194259999999999877e-01 -4.296630000000000171e-01 -3.571369999999999822e-01 5.486320000000000086e-01 4.896899999999999864e-02 -3.971580000000000110e-01 -9.303559999999999608e-01 3.512159999999999727e-01 1.548650000000000027e-01
-3.873759999999999981e-01 5.430719999999999992e-01 -5.293639999999999457e-01 -1.180889999999999995e+00 3.108640999999999988e+00 4.809923999999999644e+00 3.890372000000000163e+00 -3.169040000000000190e-01 -1.371275000000000022e+00 3.296859999999999791e-01 -1.173256000000000077e+00 1.978693999999999953e+00 2.818019999999999969e-01 -4.182449999999999779e-01 -4.136340000000000017e-01 2.755670000000000064e-01 -6.666220000000000478e-01 2.169589999999999907e+00 3.406203000000000092e+00 -3.569570000000000243e-01 -4.737225999999999715e+00 -2.582374999999999865e+00 6.446520000000000028e-01 -4.372610000000000108e-01 -3.252466000000000079e+00 -1.992849999999999899e-01 -2.354706999999999883e+00 -8.418400000000000327e-01 4.179669999999999774e-01 2.220185999999999993e+00 -1.111432999999999893e+00 -1.270818999999999921e+00 -1.300945999999999936e+00 1.172749999999999959e+00 -3.122429999999999928e-01 -3.398099999999999732e-02
8.108720000000000372e-01 -4.183169999999999944e-01 -5.207319999999999727e-01 -2.861552000000000096e+00 1.444166999999999978e+00 -2.183650000000000035e-01 -5.864099999999999868e-01 -9.717800000000000049e-02 -8.871179999999999621e-01 -1.834707000000000088e+00 1.070678000000000019e+00 1.636759000000000075e+00 1.359139000000000097e+00 -1.031752000000000002e+00 -2.120751999999999970e+00 4.733499999999999930e-01 4.707040000000000113e-01 3.170939999999999870e-01 1.218189999999999967e-01 2.029590000000000005e-01 3.529829999999999912e-01 2.435209999999999875e-01 -3.010669999999999735e-01 6.693259999999999765e-01 -1.610330000000000095e-01 -6.122400000000000064e-02 1.266400000000000026e-01 -8.279710000000000125e-01 4.103419999999999845e-01 -6.257489999999999997e-01 3.026527000000000189e+00 -1.382290999999999936e+00 5.161999999999999922e-02 2.364449999999999885e-01 -3.070209999999999884e-01 1.218293000000000070e+00
5.395600000000000396e-01 -2.272659999999999958e-01 -1.729527000000000037e+00 -1.084286000000000083e+00 9.399950000000000250e-01 -2.382423000000000179e+00 2.472798000000000052e+00 9.509090000000000042e-01 2.781910000000000216e-01 -5.020910999999999902e+00 -2.868192000000000075e+00 8.898675000000000779e+00 5.067292000000000129e+00 3.100467000000000084e+00 -9.097260999999999598e+00 -2.176731999999999889e+00 -1.223468999999999918e+00 -3.888739999999999974e-01 -2.323220000000000007e-01 -3.031349999999999878e-01 2.844909999999999939e-01 -4.849709999999999854e-01 8.521849999999999703e-01 1.236709000000000058e+00 -2.556680000000000064e-01 -3.359579999999999789e-01 4.596689999999999943e-01 5.359310000000000462e-01 -3.252349999999999963e-01 -9.011700000000000266e-02 6.082410000000000316e-01 -2.595149999999999957e-01 2.637023999999999813e+00 3.106700000000000086e-02 -3.007870000000000266e-01 -1.065569999999999989e-01
2.206831000000000209e+00 -4.128269999999999995e-01 -9.784368999999999872e+00 2.104860000000000064e-01 -1.666287999999999991e+00 -1.950784999999999991e+00 4.679438000000000208e+00 -5.110639999999999628e-01 2.794369999999999798e+00 -1.039004000000000039e+00 2.873319999999999763e-01 1.123853999999999909e+00 9.211759999999999948e-01 1.371140000000000136e-01 3.842400000000000260e-01 -1.125974000000000030e+00 -8.458480000000000443e-01 -1.503282000000000007e+00 -3.866359999999999797e+00 1.064720000000000111e+00 5.381190000000000140e+00 4.937039999999999762e-01 2.038476999999999872e+00 2.159930000000000128e+00 6.568249999999999922e-01 1.261929999999999996e-01 -2.236899999999999999e-02 -2.723678000000000043e+00 -5.690699999999999648e-01 1.378792999999999935e+00 -6.219879999999999853e-01 8.754699999999999982e-02 -8.196269999999999945e-01 2.085450000000000081e-01 2.637120000000000020e-01 8.580560000000000409e-01
2.192056000000000004e+00 1.003071000000000046e+00 1.384417999999999926e+00 -1.771463000000000010e+00 -9.283719999999999750e-01 -1.609580999999999928e+00 1.329430000000000056e-01 -2.054570000000000007e-01 6.064169999999999838e-01 1.867776000000000103e+00 9.196039999999999770e-01 5.243999999999999773e-01 2.804389999999999938e-01 -4.293319999999999914e-01 -2.526820000000000177e-01 1.228489999999999999e-01 1.221829999999999999e-01 -2.889740000000000086e-01 4.412397999999999598e+00 4.371329999999999938e-01 1.645950000000000024e+00 -4.241649999999999920e+00 -9.729699999999999460e-02 -2.066392000000000007e+00 -2.335398999999999781e+00 -9.926650000000000196e-01 -8.785140000000000171e-01 -3.151500000000000135e-02 -1.050600000000000006e-01 3.819609999999999950e-01 -6.808039999999999647e-01 -1.855980000000000130e-01 8.123120000000000340e-01 5.236999999999999988e-02 4.617890000000000050e-01 -2.593159999999999910e-01
-2.165357999999999894e+00 1.732430000000000081e-01 3.004049999999999776e-01 1.151200000000000001e-01 4.935120000000000062e-01 -2.272699999999999998e-01 2.044147000000000158e+00 -1.828499999999999917e-02 -7.762890000000000068e-01 3.262100000000000000e-01 -2.826790000000000136e-01 -2.221740000000000104e-01 1.894841999999999915e+00 6.035960000000000214e-01 8.803900000000000059e-01 -1.283680000000000099e-01 1.445420000000000038e-01 2.261269999999999947e-01 6.844369000000000369e+00 -2.477280000000000038e-01 -2.294758999999999993e+00 8.184150000000000036e-01 2.329380000000000062e-01 9.262390000000000345e-01 -1.282556999999999947e+00 2.082430000000000114e-01 -4.495950000000000224e-01 -2.608860000000000068e-01 -2.741609999999999880e-01 6.459120000000000417e-01 -2.764199999999999990e-01 -4.364230000000000054e-01 -4.025070000000000037e-01 -7.929513000000000034e+00 -5.967980000000000507e-01 1.393520000000000092e+00
-3.268623999999999974e+00 -9.374949999999999672e-01 -3.771978999999999971e+00 -2.862417999999999907e+00 4.046239999999999837e-01 2.980809999999999849e-01 1.243835000000000024e+00 5.220010000000000483e-01 -7.194409999999999972e-01 2.699050000000000171e+00 6.462160000000000126e-01 3.672299999999999898e+00 -1.277714999999999934e+00 -4.802699999999999747e-01 6.221370000000000511e-01 1.384279000000000037e+00 -1.279770000000000074e-01 -2.018352999999999842e+00 -1.054356000000000071e+00 3.829300000000000065e-02 -4.249629999999999797e-01 1.565244000000000080e+00 6.371699999999999586e-02 1.258604999999999974e+00 -2.013929999999999887e-01 -2.773419999999999774e-01 -1.305501999999999940e+00 2.197728000000000126e+00 -2.294809999999999905e-01 3.861019999999999897e+00 -8.504890000000000505e-01 4.970419999999999838e-01 -2.079654999999999809e+00 4.248580000000000134e-01 -1.193280000000000035e-01 6.077519999999999589e-01
-1.216709000000000040e+00 6.594370000000000509e-01 -9.303879999999999928e-01 1.234483999999999915e+00 -6.445180000000000353e-01 1.242510999999999921e+00 6.030495000000000161e+00 1.357191000000000036e+00 -1.945980999999999961e+00 -4.203899999999999998e-02 8.833739999999999926e-01 3.683210000000000095e-01 3.594879999999999742e-01 -6.209900000000000142e-02 8.237679999999999447e-01 6.868980000000000086e-01 1.808289999999999897e-01 8.099159999999999693e-01 -5.911889999999999645e-01 -5.275840000000000529e-01 -8.068680000000000296e-01 -7.626260000000000261e-01 -2.866239999999999899e-01 1.156200000000000006e-01 -1.608395000000000019e+00 -5.153400000000000342e-02 1.077947999999999906e+00 -5.676951999999999998e+00 -1.429426000000000085e+00 1.642323999999999895e+00 1.862139999999999906e+00 1.711890000000000078e-01 -1.441035000000000066e+00 -2.755960000000000076e-01 -2.502349999999999852e-01 -9.561359999999999859e-01
2.570939999999999892e-01 -2.650800000000000031e-02 -3.957229999999999914e-01 -1.696430000000000105e+00 -1.205753000000000075e+00 1.026616999999999891e+00 6.258890000000000287e-01 1.174099999999999970e-02 1.175381000000000009e+00 1.340521999999999991e+00 4.509509999999999907e-01 9.158549999999999747e-01 -1.393156999999999979e+00 -5.049599999999999922e-02 6.633059999999999512e-01 4.941630000000000189e-01 1.563206000000000095e+00 3.220184999999999853e+00 3.849460000000000104e-01 3.043699999999999739e-01 5.841589999999999838e-01 1.095283000000000007e+00 -3.585070000000000201e-01 -4.845451999999999870e+00 -6.384649999999999492e-01 -3.585100000000000092e-02 4.153699999999999753e-02 1.068216000000000054e+00 -4.492700000000000166e-02 -9.977789999999999715e-01 -3.731740000000000057e-01 2.347180000000000100e-01 -1.547870000000000079e-01 -1.164887000000000006e+00 -8.429429999999999978e-01 -1.233298999999999923e+00
-6.010640000000000427e-01 -7.617840000000000167e-01 1.069871999999999934e+00 -2.963087999999999944e+00 -7.735049999999999981e-01 4.455618000000000301e+00 -1.523099999999999975e-02 -4.332420000000000160e-01 1.136582999999999899e+00 6.308620000000000339e+00 3.393900000000000250e-01 -3.559893999999999892e+00 -6.707910000000000261e-01 5.713989999999999903e-01 -3.089390000000000192e-01 -2.608809999999999740e-01 -5.609140000000000237e-01 -1.602522999999999920e+00 3.572000000000000088e-03 4.079070000000000196e-01 -5.165800000000000253e-02 -4.827609999999999957e-01 -6.190630000000000299e-01 -2.581979999999999831e-01 6.182119999999999838e-01 -5.473409999999999664e-01 -2.286846999999999852e+00 -3.568919000000000175e+00 1.563585999999999920e+00 1.947206999999999910e+00 1.810729000000000033e+00 7.325110000000000232e-01 3.909139999999999837e-01 -1.783990000000000020e-01 8.105600000000000305e-02 -9.321350000000000469e-01
2.029970000000000052e+00 5.125340000000000451e-01 -1.333175999999999917e+00 1.257460999999999940e+00 -2.874249999999999861e-01 5.632380000000000164e-01 1.853533000000000097e+00 -6.922040000000000415e-01 1.248264999999999958e+00 -3.622179999999999844e-01 7.687000000000000256e-03 -3.121659999999999990e-01 -1.707321000000000089e+00 -1.809669999999999890e-01 -1.856441999999999926e+00 9.157769999999999300e+00 -3.320580999999999783e+00 6.276300000000000212e-01 3.024060000000000081e-01 8.435179999999999900e-01 7.293159999999999643e-01 -1.264976000000000100e+00 2.621439999999999881e-01 -2.894229999999999858e-01 -8.897138999999999243e+00 3.559019000000000155e+00 -1.311385000000000023e+00 -8.927499999999999325e-02 -4.390539999999999998e-01 8.444319999999999604e-01 -2.236587999999999798e+00 -4.602510000000000212e-01 1.419364999999999988e+00 -4.362400000000000305e-02 1.955800000000000038e-01 -3.296529999999999738e-01
-2.424719999999999931e-01 -8.555699999999999417e-02 9.570279999999999898e-01 -1.094050000000000022e-01 2.243179999999999896e-01 1.059829999999999939e-01 4.282699999999999840e-01 -4.760690000000000199e-01 -8.116099999999999703e-02 -8.044365000000000876e+00 -3.029399000000000175e+00 -2.076513999999999971e+00 -1.667069999999999941e-01 -2.507190000000000252e-01 -2.535919999999999841e-01 -5.153579999999999828e-01 2.472389999999999866e-01 2.403420000000000001e-01 6.031640000000000335e-01 4.022870000000000057e-01 -1.037220000000000031e+00 7.981088999999999878e+00 3.048223000000000127e+00 2.452074000000000087e+00 -4.338830000000000187e-01 8.238400000000000167e-01 -1.366076999999999986e+00 1.228720999999999952e+00 -5.663679999999999826e-01 1.130899000000000099e+00 -2.844670000000000254e-01 -6.179160000000000208e-01 -3.042279999999999984e-01 -4.445879999999999832e-01 2.801219999999999821e-01 2.324650000000000050e-01
1.553949000000000025e+00 1.590993000000000102e+00 -5.902910000000000101e-01 -4.767170000000000019e-01 -3.923059999999999881e-01 -1.211489999999999956e+00 1.067080000000000028e+00 -5.348279999999999701e-01 1.749435000000000073e+00 1.515608000000000066e+00 -1.438560000000000116e-01 1.841264000000000012e+00 1.475888000000000089e+00 7.929640000000000022e-01 -1.371202999999999950e+00 -9.086800000000000432e-02 3.099180000000000268e-01 -7.156559999999999588e-01 -1.822478999999999960e+00 -3.502899999999999903e-01 -3.919480000000000186e-01 -7.393690000000000540e-01 2.412340000000000040e-01 -1.027560000000000001e-01 -2.003999999999999948e-01 -4.811700000000000005e-02 6.428329999999999878e-01 -1.835938000000000070e+00 -2.561573000000000100e+00 -5.079286999999999885e+00 8.177090000000000192e-01 -3.873039999999999816e-01 -6.261579999999999924e-01 -1.264461999999999975e+00 1.483165000000000067e+00 5.855258000000000074e+00
8.877829999999999888e-01 1.766189999999999982e-01 1.111310000000000020e+00 1.013242999999999894e+00 -1.166490000000000027e-01 2.535549999999999748e-01 -4.138530000000000264e+00 -1.526013000000000064e+00 -1.292979999999999963e-01 2.161109999999999975e-01 -1.622069999999999901e-01 -9.374869999999999592e-01 7.562969999999999970e-01 -1.793480000000000074e-01 -6.927510000000000057e-01 2.396237999999999868e+00 2.495690000000000131e-01 -2.146250000000000102e-01 -1.016958000000000029e+00 1.868259999999999921e-01 2.342440000000000078e-01 -1.134395000000000042e+00 1.943529999999999980e-01 1.064910000000000023e-01 4.138406999999999947e+00 1.526275000000000048e+00 1.280149999999999899e-01 -4.304390000000000160e-01 -2.216589999999999949e-01 5.437680000000000291e-01 -1.856190000000000007e+00 -2.500319999999999765e-01 -1.241990000000000038e-01 -8.315669999999999451e-01 1.222659999999999997e-01 -2.790219999999999922e-01
2.450931999999999888e+00 3.684223999999999943e+00 8.589494000000000185e+00 3.037808000000000064e+00 -1.842263999999999902e+00 -3.160709999999999908e-01 -1.286009999999999931e-01 -1.258779999999999899e-01 -2.542225999999999875e+00 -2.223936000000000135e+00 6.640200000000000269e-02 9.750510000000000010e-01 -3.020948000000000189e+00 1.744510999999999923e+00 -2.637532999999999905e+00 -1.889048000000000060e+00 6.898309999999999720e-01 1.520105999999999957e+00 3.423725999999999825e+00 4.866840000000000055e-01 1.878643000000000063e+00 -2.379135999999999918e+00 -2.289649999999999963e+00 1.806216000000000044e+00 5.179759999999999920e-01 -5.436007000000000033e+00 -3.876170000000000115e+00 -1.605000999999999900e+00 8.324559999999999738e-01 -4.985280000000000378e+00 -6.172509999999999941e-01 1.322399999999999964e-02 2.161279999999999868e-01 2.433479000000000170e+00 2.176466000000000012e+00 -6.283590000000000009e-01