-1.039916396099999929e+02
-1.045536637400000046e+02
-1.018071856300000064e+02
-1.026468627099999935e+02
-1.058561305599999969e+02
-1.024989090499999946e+02
-1.077268148999999937e+02
-1.052240810899999985e+02
-1.041056822200000056e+02
-1.041757996900000052e+02
-1.051296506500000021e+02
-1.028002776699999998e+02
