2.726249532999999836e+00 0.000000000000000000e+00 0.000000000000000000e+00 1.355805099999999874e-01 4.824229159999999794e+00 0.000000000000000000e+00 -1.335774409999999912e-01 -3.821448720000000243e-01 1.943965615500000155e+01
2.438626976000000113e+00 0.000000000000000000e+00 0.000000000000000000e+00 -9.214544199999999408e-02 4.254156992000000415e+00 0.000000000000000000e+00 4.160657000000000244e-02 1.940817860000000061e-01 2.161620587999999898e+01
2.726249532999999836e+00 0.000000000000000000e+00 0.000000000000000000e+00 1.355805099999999874e-01 4.824229159999999794e+00 0.000000000000000000e+00 -1.335774409999999912e-01 -3.821448720000000243e-01 1.943965615500000155e+01
2.543503510999999939e+00 0.000000000000000000e+00 0.000000000000000000e+00 9.975100300000000475e-02 4.381817577999999713e+00 0.000000000000000000e+00 2.843860449999999762e-01 -3.922728750000000209e-01 2.072049225600000000e+01
2.726249532999999836e+00 0.000000000000000000e+00 0.000000000000000000e+00 1.355805099999999874e-01 4.824229159999999794e+00 0.000000000000000000e+00 -1.335774409999999912e-01 -3.821448720000000243e-01 1.943965615500000155e+01
