8.850299999999999834e-01 4.033719999999999750e+00 2.456409999999999982e+00 1.775439999999999907e+00 5.315999999999999892e-02 4.481510000000000105e+00 3.920000000000000151e-01 2.423960000000000115e+00 4.558379999999999654e+00 1.613860000000000072e+00 1.129660000000000108e+00 1.125520000000000032e+01 2.027909999999999879e+00 4.754500000000000171e+00 4.838899999999999868e-01 1.678630000000000067e+00 -2.163999999999999951e-02 8.715680000000000760e+00 1.349299999999999944e-01 3.746609999999999996e+00 1.077619999999999933e+01 2.136559999999999793e+00 1.628679999999999906e+00 2.400900000000000034e+00 3.985000000000000209e-01 2.605830000000000091e+00 8.621869999999999479e+00 2.757100000000000106e-01 3.899020000000000152e+00 6.593490000000000073e+00 9.340600000000000014e-01 2.202659999999999840e+00 2.486500000000000099e-01 1.719349999999999934e+00 1.168940000000000090e+00 6.579850000000000421e+00
1.461430000000000007e+00 2.157300000000000217e+00 2.223920000000000119e+00 1.767130000000000090e+00 2.334700000000000109e-01 2.069229999999999947e+01 2.289000000000000062e-02 3.706900000000000084e+00 1.096679999999999922e+01 1.215819999999999901e+00 4.368400000000000061e-01 8.379009999999999181e+00 3.808500000000000218e-01 6.858999999999999819e-02 1.269919999999999938e+00 1.404360000000000053e+00 4.247449999999999726e+00 3.663030000000000008e+00 1.267810000000000104e+00 2.460609999999999964e+00 6.909029999999999561e+00 1.989000000000000143e-02 2.647870000000000168e+00 9.059100000000000819e+00 2.868499999999999939e-01 2.098599999999999910e-01 5.946530000000000094e+00 1.354999999999999954e-02 2.300730000000000164e+00 4.494150000000000311e+00 3.235399999999999943e-01 2.380739999999999856e+00 2.153790000000000049e+01 1.345739999999999936e+00 1.364009999999999945e+00 1.073399999999999999e+01
7.907600000000000184e-01 4.020889999999999631e+00 2.484329999999999927e+00 1.749949999999999894e+00 3.407999999999999918e-02 4.418829999999999814e+00 3.870399999999999952e-01 2.344689999999999941e+00 4.504489999999999661e+00 1.611329999999999929e+00 1.115979999999999972e+00 1.123760000000000048e+01 2.068890000000000118e+00 4.751290000000000013e+00 5.148599999999999843e-01 1.717170000000000085e+00 6.210000000000000242e-03 8.758620000000000516e+00 2.024799999999999933e-01 3.782010000000000094e+00 1.075580000000000069e+01 2.139489999999999892e+00 1.610489999999999977e+00 2.364409999999999901e+00 4.169399999999999773e-01 2.634059999999999846e+00 8.703530000000000655e+00 2.851099999999999746e-01 3.905879999999999797e+00 6.584999999999999964e+00 8.743300000000000516e-01 2.141340000000000021e+00 2.962199999999999833e-01 1.728480000000000016e+00 1.278180000000000094e+00 6.548269999999999591e+00
1.772410000000000041e+00 2.589609999999999967e+00 8.304370000000000474e+00 3.034399999999999875e-01 4.302599999999999758e-01 8.485300000000000509e+00 1.167480000000000073e+00 2.579509999999999970e+00 4.287849999999999717e+00 2.312800000000000133e-01 1.918379999999999974e+00 6.377399999999999736e+00 2.450009999999999799e+00 4.188899999999999846e-01 4.030899999999999928e+00 1.158940000000000081e+00 3.867370000000000196e+00 1.979400000000000048e+00 2.376879999999999882e+00 1.715470000000000050e+00 2.095330000000000137e+00 2.073760000000000048e+00 1.466480000000000006e+00 1.047279999999999944e+01 7.736499999999999488e-01 2.110970000000000013e+00 7.953000000000000347e-02 9.654800000000000049e-01 3.582009999999999916e+00 1.059880000000000067e+01 1.398859999999999992e+00 4.147859999999999658e+00 6.328059999999999796e+00 2.376749999999999918e+00 -1.173700000000000021e-01 2.066959999999999908e+01
9.483800000000000008e-01 4.021499999999999631e+00 2.430489999999999817e+00 1.807220000000000049e+00 6.049000000000000210e-02 4.531990000000000407e+00 4.093200000000000172e-01 2.500630000000000130e+00 4.609740000000000393e+00 1.607110000000000039e+00 1.156930000000000014e+00 1.122199999999999953e+01 2.014660000000000117e+00 4.747209999999999930e+00 4.444600000000000217e-01 1.624460000000000015e+00 -4.125000000000000194e-02 8.697720000000000340e+00 8.029000000000000026e-02 3.708180000000000032e+00 1.079710000000000036e+01 2.133579999999999810e+00 1.644779999999999909e+00 2.436199999999999921e+00 3.868599999999999817e-01 2.522590000000000110e+00 8.545669999999999433e+00 2.909399999999999764e-01 3.873619999999999841e+00 6.591319999999999624e+00 9.742199999999999749e-01 2.288710000000000022e+00 2.341600000000000070e-01 1.694939999999999891e+00 1.141710000000000003e+00 6.631050000000000111e+00
