-1.678863999999999912e+00 -1.829929999999999890e-01 1.459449999999999914e-01 7.248360000000000358e-01 8.991160000000000263e-01 1.228600000000000005e-02 2.270139999999999936e-01 2.969700000000000117e-01 -1.162999999999999971e-02 8.698999999999999788e-02 8.921499999999999986e-01 6.262809999999999766e-01 2.982960000000000056e-01 9.134529999999999594e-01 -3.964670000000000138e-01 3.084779999999999744e-01 -2.255089999999999872e-01 1.107415999999999956e+00 -6.286730000000000373e-01 -5.157549999999999635e-01 -5.260449999999999848e-01 1.823799999999999866e-01 5.889680000000000470e-01 5.188080000000000469e-01 -7.173979999999999801e-01 -2.665250000000000119e-01 5.903200000000000114e-02 5.115553000000000239e+00 -7.839100000000000235e-02 4.906187000000000076e+00 -6.611310000000000242e-01 -1.572495999999999894e+00 -6.022099999999999675e-02 -5.176079999999999570e-01 1.265249999999999986e-01 -8.350729999999999542e-01 -1.903509999999999924e-01 -3.995499999999999746e-02 -3.217899999999999927e-02 6.156299999999999967e-02 2.191770000000000107e-01 1.064329999999999998e+00 2.373499999999999915e-02 -2.089614000000000082e+00 -2.092340000000000033e-01 7.216160000000000352e-01 8.738369999999999749e-01 -3.567719999999999780e-01 -8.262369999999999992e-01 -2.089509999999999978e-01 -7.888960000000000417e-01 -4.287420000000000120e-01 1.891504999999999992e+00 1.392886999999999986e+00 -8.600929999999999964e-01 8.545660000000000478e-01 -2.069380000000000108e-01 7.190410000000000412e-01 1.010928000000000049e+00 -3.407370000000000121e-01 4.449110000000000009e-01 -1.046300000000000008e-02 -5.578079999999999705e-01 -3.795773000000000064e+00 1.787640000000000062e-01 -5.122719000000000023e+00 -1.591247999999999996e+00 -5.913220000000000143e-01 -6.056709999999999594e-01 5.233000000000000151e-02 -7.544570000000000443e-01 6.467340000000000311e-01 4.927340000000000053e-01 -1.053185999999999956e+00 -2.058394999999999975e+00 1.273288999999999893e+00 -5.383639999999999537e-01 -3.366140000000000243e-01 -3.567750000000000088e-01 -9.329849999999999532e-01 1.173740999999999923e+00 -5.364200000000000218e-02 -1.563799999999999912e-02 -3.022499999999999840e-02 3.698230000000000128e-01 -5.235079999999999734e-01 -8.377130000000000409e-01 -1.053509999999999946e+00 3.480989999999999918e-01 -4.259799999999999698e-02 1.681807999999999970e+00 3.688690000000000024e-01 1.978739999999999943e-01 5.756480000000000485e-01 1.371840000000000004e-01 1.504413000000000000e+00
9.924060000000000104e-01 9.077359999999999873e-01 -3.341239999999999766e-01 2.305760000000000032e-01 -3.255000000000000115e-01 5.656750000000000389e-01 1.065061000000000035e+00 -9.192960000000000020e-01 -1.083841999999999972e+00 6.299150000000000027e-01 -5.180629999999999846e+00 3.738318000000000030e+00 -5.187939999999999774e-01 5.330289999999999750e-01 -1.047069999999999945e-01 7.569099999999999440e-02 4.580311000000000021e+00 -5.067366999999999955e+00 -1.264823999999999948e+00 3.487900000000000028e-02 9.907099999999999795e-01 -9.696420000000000039e-01 -1.733629999999999893e-01 5.076559999999999961e-01 -9.487539999999999862e-01 1.534670999999999896e+00 -2.678070000000000173e-01 2.454500000000000015e-01 1.450522000000000089e+00 -4.339100000000000179e-01 -1.470909000000000022e+00 9.748409999999999576e-01 -2.473309999999999953e-01 2.342699999999999991e-02 4.574030000000000040e-01 1.028300999999999910e+00 1.207267000000000090e+00 4.336949999999999972e-01 7.130870000000000264e-01 2.223169999999999868e-01 -6.159679999999999600e-01 4.734889999999999932e-01 -8.080100000000000060e-01 8.083500000000000407e-02 -3.082400000000000140e-01 5.462360000000000548e-01 -3.227499999999999813e-01 6.478070000000000217e-01 1.161618999999999957e+00 8.452500000000000291e-02 -7.583419999999999606e-01 5.878470000000000084e-01 -2.739179999999999948e-01 6.514469999999999983e-01 -6.479460000000000219e-01 -3.517159999999999731e-01 -9.886030000000000095e-01 -8.542210000000000081e-01 -4.497320000000000206e-01 7.434229999999999450e-01 -1.076729000000000047e+00 1.432319999999999982e-01 5.789400000000000102e-01 3.079700000000000215e-01 4.716900000000000259e-02 1.327480000000000049e-01 -9.302199999999999358e-02 -2.257299999999999862e-01 1.290200000000000027e-02 1.405899999999999928e+00 -6.720080000000000497e-01 -1.652068000000000092e+00 4.620250000000000190e-01 9.753819999999999713e-01 3.698400000000000021e-01 -1.515702000000000105e+00 -8.262239999999999585e-01 1.687049999999999939e-01 2.401790000000000036e-01 -7.139900000000000135e-01 -8.762320000000000109e-01 5.068529999999999980e-01 -8.522140000000000271e-01 -7.969610000000000305e-01 1.593628999999999962e+00 7.689369999999999816e-01 -8.161100000000000021e-01 -1.210857000000000072e+00 -3.995750000000000135e-01 7.849279999999999591e-01 -1.471929999999999905e-01 -3.971770000000000023e-01 2.238559999999999994e-01 2.223599999999999882e-02 -3.073759999999999826e-01 1.403810999999999920e+00
-2.700956999999999830e+00 1.417383000000000060e+00 1.844310000000000116e-01 2.902759999999999785e-01 -6.253889999999999727e-01 -2.912580000000000169e-01 -4.600259999999999905e-01 -8.128239999999999910e-01 -1.237424999999999997e+00 -5.111480000000000468e-01 9.528100000000000458e-02 -1.781409999999999938e-01 1.293325999999999976e+00 -1.372967000000000048e+00 8.083799999999999319e-02 1.177745999999999960e+00 -3.843050000000000077e-01 7.680489999999999817e-01 -3.707509999999999972e-01 2.728499999999999814e-01 8.613699999999999690e-01 1.281411000000000078e+00 -3.257899999999999685e-02 -8.470809999999999729e-01 -7.050440000000000040e-01 1.576589999999999936e-01 -5.622300000000000214e-02 3.690709999999999824e-01 -5.385910000000000419e-01 9.545559999999999601e-01 1.026156000000000068e+00 -6.920110000000000428e-01 -1.264825000000000088e+00 -3.978979999999999739e-01 -1.527692000000000050e+00 1.800399999999999917e-02 -1.618020000000000014e-01 4.941829999999999834e-01 3.467699999999999949e-02 -1.523990000000000067e-01 -1.048160000000000064e-01 -1.717380000000000018e-01 8.725500000000000478e-01 1.937450000000000006e-01 6.794090000000000407e-01 4.662279999999999758e-01 6.108660000000000201e-01 -1.923340000000000050e-01 5.941670000000000007e-01 1.037450000000000039e-01 -5.122060000000000501e-01 4.119494000000000433e+00 8.348820000000000130e-01 5.505283000000000371e+00 -1.151118000000000086e+00 -8.213669999999999582e-01 1.064851999999999910e+00 -3.755220000000000224e-01 -2.345440000000000025e-01 1.538802000000000003e+00 6.152600000000000291e-01 9.333040000000000225e-01 -8.438600000000000267e-02 -1.185549999999999937e-01 -3.325999999999999790e-02 -1.020759999999999890e+00 -7.301720000000000432e-01 9.569099999999999828e-02 -6.835550000000000237e-01 3.752630000000000132e-01 7.583379999999999566e-01 -4.702830000000000066e-01 -3.974206999999999823e+00 -2.212989999999999957e-01 -4.584077999999999875e+00 -5.082839999999999581e-01 6.976799999999999669e-01 4.108620000000000050e-01 1.114903999999999895e+00 6.150330000000000519e-01 -6.144370000000000109e-01 -1.706890000000000074e-01 2.042239999999999889e-01 5.730000000000000501e-04 7.797199999999999964e-02 4.356280000000000152e-01 8.404699999999999671e-02 -7.846319999999999961e-01 -1.365283000000000024e+00 4.201860000000000039e-01 1.058510000000000006e-01 9.948799999999999311e-02 2.537309999999999843e-01 -5.064699999999999758e-01 7.469479999999999453e-01 -6.509409999999999918e-01
8.115219999999999656e-01 -3.507259999999999822e-01 2.694900000000000073e-01 -7.511200000000000099e-01 -3.942390000000000061e-01 -6.595320000000000071e-01 1.377135999999999916e+00 1.239495999999999931e+00 2.229099999999999970e-01 8.253559999999999786e-01 1.258707000000000020e+00 1.169535999999999909e+00 -1.010439999999999949e-01 4.331019999999999870e-01 4.289609999999999812e-01 -5.605539999999999967e-01 -7.552179999999999449e-01 5.601829999999999865e-01 1.071790999999999938e+00 -6.957849999999999868e-01 -2.174260000000000081e-01 -1.120460000000000012e+00 -1.024086000000000052e+00 2.761589999999999878e-01 -1.097859999999999947e-01 -1.458674000000000026e+00 7.703520000000000367e-01 3.032860000000000000e-01 4.590299999999999936e-02 -2.538549999999999973e-01 -2.136350000000000193e+00 -1.591400000000000037e-01 2.002400000000000180e+00 4.705100000000000254e-02 -1.058820000000000039e-01 -6.708100000000000174e-01 -1.553263000000000060e+00 -1.023841000000000001e+00 -1.866120000000000001e-01 2.842859999999999832e-01 1.178140000000000021e-01 -1.120376000000000039e+00 7.747779999999999667e-01 9.962500000000000522e-02 6.300729999999999942e-01 6.098569999999999824e-01 -7.695570000000000466e-01 5.353879999999999750e-01 2.035104000000000024e+00 -1.015262000000000109e+00 -1.768609000000000098e+00 -8.024909999999999544e-01 1.249808999999999948e+00 -2.507699999999999860e-02 4.154334000000000415e+00 2.830349999999999810e-01 3.214388000000000023e+00 -4.578549999999999898e+00 1.449788999999999994e+00 -5.112131999999999898e+00 -1.253675000000000095e+00 5.797679999999999501e-01 -1.280779999999999974e-01 -1.010800000000000032e-01 6.044329999999999981e-01 -1.253903999999999908e+00 -2.533969999999999834e-01 5.249800000000000022e-01 3.752659999999999885e-01 1.116940000000000044e+00 1.415874000000000077e+00 1.463788000000000089e+00 -3.647859999999999991e-01 8.317099999999999493e-02 -9.366139999999999466e-01 -1.092440000000000078e+00 -1.976267999999999914e+00 7.867330000000000156e-01 -1.260419999999999874e-01 2.659960000000000102e-01 1.892240000000000033e-01 2.755130000000000079e-01 -1.090233000000000008e+00 -9.158150000000000457e-01 4.774459999999999815e-01 -2.020299999999999874e-02 8.818920000000000092e-01 -5.014099999999999807e-02 5.200420000000000043e-01 -7.781379999999999963e-01 6.961840000000000250e-01 8.491499999999999604e-01 5.268559999999999910e-01 9.459700000000000053e-02 -1.815819999999999934e-01 -2.766230000000000078e-01
1.079263000000000083e+00 8.959430000000000449e-01 -7.788549999999999640e-01 -2.501099999999999990e-01 -4.428239999999999954e-01 1.829479999999999995e+00 2.778180000000000094e-01 -6.030860000000000110e-01 1.599947000000000008e+00 3.722050000000000081e-01 6.726649999999999574e-01 6.387019999999999920e-01 1.252429999999999932e-01 -6.941220000000000168e-01 -5.682220000000000049e-01 1.152130000000000098e+00 -1.335458999999999952e+00 -2.851179999999999826e-01 -5.564230000000000009e-01 6.858159999999999812e-01 -4.354729999999999990e-01 3.634410000000000140e-01 1.625599999999999962e-02 -3.866600000000000037e-01 3.355650000000000022e-01 2.068274000000000168e+00 -1.527670000000000083e+00 1.325174999999999992e+00 7.867610000000000436e-01 -5.374199999999999811e-02 1.365800000000000000e-02 -5.220500000000000140e-01 8.801399999999999502e-02 -1.343070999999999904e+00 1.258294999999999941e+00 5.657980000000000231e-01 -6.576170000000000071e-01 3.622429999999999817e-01 -8.490109999999999602e-01 -2.750770000000000159e-01 -1.662849999999999884e-01 1.634470000000000089e-01 1.199569999999999942e-01 -1.381600000000000016e-02 -3.231289999999999996e-01 8.898939999999999628e-01 2.199429999999999996e-01 2.241059999999999997e-01 1.524850000000000094e-01 8.076429999999999998e-01 -5.663000000000000256e-01 7.527089999999999614e-01 -4.781400000000000095e-01 1.287484000000000073e+00 4.903739999999999766e-01 3.064963000000000104e+00 3.853203999999999851e+00 -6.990229999999999499e-01 2.574793999999999805e+00 1.760016000000000025e+00 1.053387999999999991e+00 -7.912820000000000409e-01 -1.540332999999999952e+00 -2.198707000000000189e+00 -3.519660000000000011e-01 5.720359999999999889e-01 -1.075493000000000032e+00 -1.241499999999999965e-01 -2.873470000000000191e-01 -4.286000000000000226e-02 -6.926569999999999672e-01 1.046489999999999920e+00 5.996979999999999533e-01 -9.090589999999999504e-01 8.873760000000000536e-01 -4.549250000000000238e-01 -5.193029999999999591e-01 -1.123740000000000017e-01 -9.377550000000000052e-01 -6.209729999999999972e-01 -1.867689999999999906e-01 3.053759999999999808e-01 -4.214052999999999827e+00 -3.280866000000000060e+00 -4.090909999999999824e-01 4.823569999999999802e-01 -8.211899999999999755e-02 5.019890000000000185e-01 -1.677165000000000017e+00 -2.828714999999999868e+00 -1.796369999999999911e-01 3.071610000000000174e-01 -8.953259999999999552e-01 -8.305770000000000097e-01 -4.672400000000000164e-02 4.719300000000000161e-01
7.933660000000000156e-01 1.172188000000000008e+00 -4.140630000000000144e-01 -3.383156000000000052e+00 2.661575000000000024e+00 4.107299999999999840e-01 -2.326423999999999825e+00 -9.559490000000000487e-01 -1.161478000000000010e+00 1.037187999999999999e+00 1.407515000000000072e+00 4.838200000000000139e-02 -9.580239999999999867e-01 -7.831200000000000661e-02 2.954490000000000172e-01 -9.791260000000000518e-01 -8.974699999999999345e-02 -8.274209999999999621e-01 2.412580000000000002e-01 3.007879999999999998e-01 3.487000000000000082e-03 5.841099999999999764e-02 -5.069150000000000045e-01 3.705300000000000260e-01 -1.688690999999999942e+00 -8.317250000000000476e-01 -9.323399999999999743e-02 -1.879369999999999929e-01 3.563870000000000093e-01 2.406530000000000058e-01 -1.231924000000000019e+00 4.219990000000000130e-01 5.324219999999999509e-01 8.637310000000000265e-01 -7.904550000000000187e-01 -1.001662000000000052e+00 4.840920000000000223e-01 -2.078010000000000135e-01 1.572947000000000095e+00 -1.009729000000000099e+00 2.203654999999999919e+00 -9.352949999999999875e-01 1.065917000000000003e+00 -1.108350000000000030e-01 8.348950000000000538e-01 1.201487999999999889e+00 -3.730950000000000100e-01 -7.912709999999999466e-01 4.500179999999999736e-01 -9.740980000000000194e-01 3.731860000000000177e-01 -5.651920000000000277e-01 2.646700000000000094e-02 -1.286135999999999946e+00 3.130129999999999857e-01 -5.966300000000000076e-02 5.864400000000000168e-02 2.824000000000000121e-02 -6.669999999999999497e-04 1.734970000000000123e-01 1.401850000000000041e-01 -4.364600000000000257e+00 3.683124999999999982e+00 1.935099999999999876e-01 -1.145864999999999911e+00 1.705362000000000045e+00 -3.413349999999999995e-01 6.162100000000000216e-02 -1.410639999999999949e-01 4.662665999999999755e+00 -1.266243999999999925e+00 -3.607742000000000004e+00 -9.340169999999999861e-01 -2.951509999999999967e-01 -5.150369999999999671e-01 -1.527779999999999971e-01 8.441800000000000415e-01 1.346019999999999994e-01 7.017470000000000097e-01 8.391889999999999628e-01 -2.004799999999999915e-01 2.038999999999999979e-01 -9.200999999999999457e-02 2.902319999999999900e-01 1.328430999999999917e+00 7.201830000000000176e-01 -1.477780000000000094e+00 2.235200000000000034e-02 -8.863560000000000327e-01 4.324979999999999936e-01 -1.394849999999999979e-01 6.461580000000000101e-01 5.297260000000000302e-01 1.083039999999999975e-01 1.367582999999999993e+00 7.622980000000000311e-01
-5.435186999999999991e+00 -3.586399999999999810e+00 5.551230000000000331e-01 4.851039999999999797e-01 1.399789999999999923e-01 1.405580999999999969e+00 -6.910260000000000291e-01 3.112940000000000151e-01 -1.156670000000000059e-01 3.769799999999999818e-01 -3.919659999999999811e-01 5.850619999999999710e-01 3.467680000000000207e-01 -1.919650000000000079e+00 -7.720219999999999860e-01 -7.169790000000000330e-01 -3.443789999999999907e-01 -1.170531999999999906e+00 -1.487819999999999976e-01 -7.737370000000000081e-01 9.665770000000000195e-01 8.132340000000000124e-01 -6.819209999999999994e-01 -2.859400000000000136e-02 9.756029999999999980e-01 4.206619999999999804e-01 -7.999760000000000204e-01 1.621410000000000073e-01 7.557549999999999546e-01 8.139859999999999873e-01 -3.730599999999999888e-02 -1.561919999999999975e+00 9.364860000000000406e-01 4.402150999999999925e+00 4.322885000000000311e+00 2.930499999999999772e-01 8.815250000000000030e-01 -2.130200000000000149e-02 -1.412757999999999958e+00 1.200370000000000048e-01 4.195840000000000125e-01 7.132070000000000354e-01 -2.312579999999999913e-01 1.342621999999999982e+00 4.513019999999999810e-01 3.944980000000000153e-01 -8.276149999999999896e-01 -1.646808999999999967e+00 -3.267390000000000017e-01 1.267212000000000005e+00 2.374207999999999874e+00 1.226880000000000054e-01 8.626399999999999624e-01 7.607909999999999950e-01 6.692900000000000515e-01 -1.118009999999999976e-01 -1.440217999999999998e+00 -9.547759999999999581e-01 1.112012000000000000e+00 -1.460345000000000004e+00 1.506159999999999943e+00 -7.775400000000000089e-01 -1.885989999999999889e-01 -6.156530000000000058e-01 4.370709999999999873e-01 -2.003611999999999949e+00 -4.909390000000000143e-01 6.745609999999999662e-01 4.892480000000000162e-01 4.797509999999999830e-01 1.298405999999999949e+00 -7.119860000000000078e-01 -1.798086000000000073e+00 8.304430000000000422e-01 4.009599999999999831e-01 3.581449999999999911e-01 1.847409999999999886e-01 9.713749999999999885e-01 8.800400000000000444e-01 -1.056265000000000009e+00 -1.000496000000000052e+00 -3.438840000000000230e-01 -1.141666999999999987e+00 -8.765469999999999651e-01 -4.798729999999999940e-01 5.617710000000000203e-01 1.890320000000000056e-01 -5.228150000000000297e-01 -8.632809999999999651e-01 7.179769999999999763e-01 -5.263229999999999853e-01 2.922879999999999923e-01 -1.972929999999999962e-01 3.455099999999999838e-01 -1.174481000000000108e+00 1.201487999999999889e+00
2.661519999999999997e-01 -4.308600000000000207e-01 1.149889999999999940e-01 -4.471499999999999780e-02 -7.429299999999999793e-02 -4.977489999999999970e-01 2.258334000000000064e+00 -2.583260000000000001e-01 9.481300000000000283e-01 -1.643891999999999909e+00 8.881350000000000078e-01 1.018758999999999970e+00 -5.147760000000000113e-01 -5.645090000000000385e-01 -1.171969999999999956e-01 -1.525633999999999935e+00 3.807280000000000109e-01 -4.587430000000000119e-01 7.843630000000000324e-01 4.982500000000000123e-02 2.962259999999999893e-01 3.495550000000000046e-01 -8.720300000000000273e-02 2.529719999999999747e-01 -1.930779999999999941e+00 3.312596999999999792e+00 -5.560399999999999787e-01 2.751140000000000252e-01 -4.927070000000000061e-01 -8.831919999999999771e-01 -3.537489999999999801e-01 -1.294589999999999907e-01 9.801560000000000272e-01 -2.348050000000000137e-01 -4.145999999999999686e-02 1.709799999999999931e-01 4.504940000000000055e-01 -9.745099999999999596e-02 -3.318600000000000022e-02 4.960350000000000037e-01 1.000874999999999959e+00 5.011430000000000051e-01 -3.996179999999999732e-01 -8.396050000000000457e-01 -1.363838000000000106e+00 -6.616009999999999946e-01 -4.026199999999999918e-02 -8.236740000000000173e-01 -1.007830999999999921e+00 8.013299999999999590e-02 7.136529999999999818e-01 3.391750000000000043e-01 -2.583679999999999866e-01 -7.746999999999999720e-02 9.813500000000000001e-02 -6.693569999999999798e-01 1.251638000000000028e+00 1.506010000000000126e-01 1.926699999999999940e-02 -4.414719999999999756e-01 -2.160199999999999967e-02 -4.490899999999999892e-01 -2.281880000000000019e-01 -9.069599999999999884e-02 -2.122850000000000015e-01 3.225770000000000026e-01 4.731099999999999750e-01 -4.635230000000000183e-01 -3.105379999999999807e-01 1.552560000000000051e-01 6.166449999999999987e-01 1.134560000000000013e-01 6.446690000000000476e-01 -2.349320000000000019e-01 1.647949999999999970e-01 3.937669999999999781e-01 -1.842991999999999964e+00 -2.150926999999999811e+00 5.295819999999999972e-01 3.287829999999999919e-01 1.576465999999999923e+00 8.511599999999999722e-02 1.026032000000000055e+00 -7.126829999999999554e-01 -1.578130000000000088e-01 2.009690000000000087e-01 4.340919999999999779e-01 2.341139999999999888e-01 -1.062820000000000015e-01 2.605540000000000078e-01 -3.040430000000000077e-01 -6.449080000000000368e-01 1.382099999999999995e-02 9.079810000000000381e-01 3.388300000000000339e-02 -4.795090000000000185e-01
4.060230000000000228e-01 -6.283619999999999761e-01 1.617485999999999979e+00 5.697160000000000002e-01 -6.316500000000000448e-01 9.097769999999999468e-01 8.274860000000000548e-01 2.591544999999999987e+00 -1.180104000000000042e+00 -1.352953999999999990e+00 -2.610020000000000118e-01 -7.563900000000000068e-01 4.433830000000000271e-01 1.791409999999999947e-01 -1.011036999999999964e+00 3.198090000000000099e-01 -2.631740000000000190e-01 6.144549999999999734e-01 3.205600000000000116e-02 -1.066945000000000032e+00 -3.440590000000000037e-01 -7.687169999999999837e-01 -1.833860000000000046e+00 1.045879999999999921e+00 -3.703599999999999948e-02 6.826799999999999535e-01 -3.640470000000000095e-01 2.035679999999999990e-01 5.096720000000000139e-01 -1.415770000000000084e-01 -1.204190000000000094e+00 1.978785000000000016e+00 8.998199999999999532e-01 -2.786529999999999840e-01 4.852246000000000059e+00 3.967827999999999911e+00 8.168389999999999818e-01 1.265180999999999889e+00 -3.432760000000000256e-01 1.383510000000000018e-01 -8.396240000000000370e-01 1.795879999999999976e-01 -9.758000000000000007e-02 5.653810000000000224e-01 -7.190429999999999877e-01 -1.190452999999999983e+00 4.454870000000000219e-01 9.305660000000000043e-01 -5.514069999999999805e-01 1.910927999999999960e+00 5.922450000000000214e-01 1.453791999999999973e+00 5.365729999999999666e-01 -5.687579999999999858e-01 9.943969999999999754e-01 -4.486229999999999940e-01 1.076099999999999973e-02 -3.232119999999999993e-01 -3.937930000000000041e-01 1.308100000000000096e-01 -7.954790000000000472e-01 -2.190229999999999955e-01 -1.184189999999999965e-01 -7.421999999999999431e-02 -1.050192999999999932e+00 -4.982659999999999867e-01 -1.523171999999999970e+00 -7.946100000000000385e-02 2.462020000000000042e-01 7.468580000000000219e-01 -2.264140000000000041e-01 -2.703999999999999806e-03 -5.766710000000000447e-01 -3.441645999999999983e+00 -4.793188999999999922e+00 2.594320999999999877e+00 -1.274542000000000064e+00 2.430229999999999890e-01 1.426209999999999978e-01 -1.081420000000000020e-01 -8.389889999999999848e-01 -1.104783000000000071e+00 -6.282879999999999576e-01 -9.202839999999999909e-01 5.972490000000000299e-01 -1.319249999999999867e-01 5.407340000000000479e-01 4.492729999999999779e-01 -4.201650000000000107e-01 -5.542500000000000204e-01 -9.392000000000000348e-02 -9.732929999999999637e-01 9.953429999999999778e-01 -7.632959999999999745e-01 -5.974960000000000271e-01 2.298749999999999960e-01
