3.294308316389757407e-01 5.063962926708827972e+00 6.514602471900076353e+00 5.063962926708827972e+00 -3.890149515858154494e-01 -7.040027258381664765e-01 6.514602471900076353e+00 -7.040027258381664765e-01 -1.828840426772731176e+00
-6.565461578133794163e+00 8.530732572696938520e-01 -1.566611890675064345e+00 8.530732572696938520e-01 2.752984318813089804e+00 -3.883507197373694542e+00 -1.566611890675064345e+00 -3.883507197373694542e+00 8.752282769366155790e+00
3.334344873820556110e+00 -1.117121168897960093e+00 7.788590558758222038e+00 -1.117121168897960093e+00 -1.654685663537889928e+00 -2.343988614397150894e+00 7.788590558758222038e+00 -2.343988614397150894e+00 5.315723692998032490e+00
9.594787101957255260e+00 1.171696058954383668e+00 -7.717868740724587173e-02 1.171696058954383668e+00 -4.313714696536472992e+00 -4.396847519159918782e+00 -7.717868740724587173e-02 -4.396847519159918782e+00 3.585243644638228755e+00
2.603806396991812822e+00 1.982431874631081226e-01 -1.328537973085061941e+00 1.982431874631081226e-01 1.081479304102471950e+01 1.332703794426157495e+00 -1.328537973085061941e+00 1.332703794426157495e+00 8.859861698474219338e+00
4.673106755188385364e+00 1.050262346287861748e+00 -3.521068251239003910e+00 1.050262346287861748e+00 2.457134212445406973e+00 -6.306168978702702432e+00 -3.521068251239003910e+00 -6.306168978702702432e+00 4.908029735975459218e+00
9.966464138690092511e+00 3.701392141146667036e+00 -3.735093826147676932e+00 3.701392141146667036e+00 1.904728714285507607e+01 2.130683092420651459e+00 -3.735093826147676932e+00 2.130683092420651459e+00 1.120324276192662083e+01
-1.642812230600238976e+01 -6.074680711017073076e-01 -2.476896305267197285e+00 -6.074680711017073076e-01 -1.057106527623007253e+01 4.363115329731786396e+00 -2.476896305267197285e+00 4.363115329731786396e+00 -1.251760091702303512e+01
7.375218873057339586e+00 -4.768753187846587416e+00 -9.383406623689295040e-03 -4.768753187846587416e+00 3.045419933614256447e+00 7.068252832984793788e-01 -9.383406623689295040e-03 7.068252832984793788e-01 7.309603132062170161e+00
