7.814176409999999962e+00 0.000000000000000000e+00 0.000000000000000000e+00 1.176971200000000023e-01 7.732236971999999930e+00 0.000000000000000000e+00 -1.381549059999999940e-01 -4.366053899999999821e-02 7.705889477999999571e+00
7.753062618000000406e+00 0.000000000000000000e+00 0.000000000000000000e+00 4.894921399999999784e-02 7.649798408999999744e+00 0.000000000000000000e+00 1.717770180000000035e-01 -5.276560999999999751e-02 7.944100947999999995e+00
7.559064230999999801e+00 0.000000000000000000e+00 0.000000000000000000e+00 -1.998810450000000072e-01 7.594219071999999571e+00 0.000000000000000000e+00 -1.495092359999999898e-01 -3.275854999999999739e-02 7.399226356999999865e+00
7.583959422000000394e+00 0.000000000000000000e+00 0.000000000000000000e+00 -1.109817020000000015e-01 7.564382146999999890e+00 0.000000000000000000e+00 -2.147818290000000074e-01 -4.844995000000000378e-03 7.754376522000000271e+00
7.216051670999999779e+00 0.000000000000000000e+00 0.000000000000000000e+00 1.167995690000000059e-01 7.476388863999999579e+00 0.000000000000000000e+00 -1.105090620000000051e-01 1.435215980000000002e-01 7.323301606000000241e+00
7.565155139999999889e+00 0.000000000000000000e+00 0.000000000000000000e+00 1.224501840000000036e-01 7.838087116999999715e+00 0.000000000000000000e+00 -1.158553509999999953e-01 1.504649909999999924e-01 7.677593691000000220e+00
7.581826083000000160e+00 0.000000000000000000e+00 0.000000000000000000e+00 3.090090200000000092e-02 7.710939688999999930e+00 0.000000000000000000e+00 4.249089300000000180e-02 1.469089990000000123e-01 7.858836174000000341e+00
7.492576431999999897e+00 0.000000000000000000e+00 0.000000000000000000e+00 3.053715099999999849e-02 7.620170174000000074e+00 0.000000000000000000e+00 4.199071000000000053e-02 1.451796559999999903e-01 7.766325691999999670e+00
7.491977534000000105e+00 0.000000000000000000e+00 0.000000000000000000e+00 1.419045760000000045e-01 7.717509792999999618e+00 0.000000000000000000e+00 -1.148951329999999965e-01 1.845949090000000015e-01 7.383044093999999724e+00
7.583476023000000232e+00 0.000000000000000000e+00 0.000000000000000000e+00 4.787852299999999922e-02 7.482470562999999686e+00 0.000000000000000000e+00 1.680196539999999905e-01 -5.161144200000000043e-02 7.770335677000000274e+00
