3.590479999999999894e+00 1.775599999999999956e-01 4.305430000000000312e+00 -3.720000000000000216e-03 7.545500000000000540e-01 1.046930000000000049e+01 2.253940000000000055e+00 1.792300000000000004e+00 1.042789999999999928e+01 8.237299999999999622e-01 5.050099999999999589e-01 1.858190000000000097e+01 1.307379999999999987e+00 1.958010000000000028e+00 4.382929999999999993e+00 3.153059999999999974e+00 2.196070000000000189e+00 1.851670000000000016e+01 5.972100000000000186e-01 2.578660000000000174e+00 6.535899999999999821e+00 3.829569999999999919e+00 2.118149999999999977e+00 8.552970000000000184e+00 2.012200000000000100e-01 1.524909999999999988e+00 2.062870000000000203e+00 2.245270000000000099e+00 4.559900000000000064e-01 2.267939999999999845e+00 1.570619999999999905e+00 9.635299999999999976e-01 8.714660000000000295e+00 2.842909999999999826e+00 6.029499999999999860e-01 6.654840000000000089e+00
9.908400000000000540e-01 1.010159999999999947e+00 1.039509999999999934e+00 1.608630000000000004e+00 2.073479999999999990e+00 1.164739999999999931e+01 2.503929999999999989e+00 1.034200000000000008e+00 5.020520000000000316e+00 4.166400000000000103e-01 1.779279999999999973e+00 5.216890000000000249e+00 2.447109999999999896e+00 8.752499999999999725e-01 1.386050000000000004e+01 1.914560000000000040e+00 1.990399999999999947e-01 9.773379999999999512e+00 3.812460000000000182e+00 6.774900000000000366e-01 3.031870000000000065e+00 3.733000000000000207e-02 5.861199999999999743e-01 7.524729999999999919e+00 1.970399999999999929e-01 2.289750000000000174e+00 1.406129999999999924e+01 1.639119999999999910e+00 2.278500000000000192e+00 3.027320000000000011e+00 2.981399999999999828e+00 2.324019999999999975e+00 6.255600000000000049e-01 2.405390000000000139e+00 2.437380000000000102e+00 7.484519999999999840e+00
4.257629999999999804e+00 2.320500000000000063e-01 4.575239999999999974e+00 1.501400000000000068e+00 2.350010000000000154e+00 1.803200000000000003e+01 1.911040000000000072e+00 1.455289999999999973e+00 3.923420000000000130e+00 3.663920000000000066e+00 4.901499999999999746e-01 9.040190000000000836e+00 3.828770000000000007e+00 1.119729999999999892e+00 2.392999999999999988e-02 3.573599999999999888e+00 6.196000000000000119e-02 2.272120000000000140e+00 1.568559999999999954e+00 2.330080000000000151e+00 8.262209999999999610e+00 1.789699999999999902e-01 1.339409999999999989e+00 6.686119999999999841e+00 1.461580000000000101e+00 4.113999999999999879e-01 1.020739999999999981e+01 2.315230000000000121e+00 2.391680000000000028e+00 6.207950000000000301e+00 1.420169999999999932e+00 1.141140000000000043e+00 1.644009999999999971e+00 3.551950000000000163e+00 1.700819999999999999e+00 1.098550000000000004e+01
9.897700000000000387e-01 1.552359999999999962e+00 6.949690000000000367e+00 1.374770000000000048e+00 6.765700000000000047e-01 2.057879999999999932e+00 3.566479999999999873e+00 -2.240699999999999914e-01 2.011720000000000041e+01 1.124360000000000026e+00 9.957000000000000295e-01 9.255390000000000228e+00 8.475300000000000056e-01 1.602510000000000101e+00 1.120279999999999987e+01 3.083200000000000163e+00 5.335699999999999887e-01 1.049810000000000088e+01 3.226840000000000153e+00 2.270379999999999843e+00 8.756300000000000194e-01 9.669799999999999507e-01 1.021819999999999951e+00 4.594879999999999853e+00 1.421799999999999953e+00 9.831499999999999684e-01 2.116829999999999856e+01 2.998600000000000154e+00 2.174230000000000107e+00 5.888869999999999827e+00 3.041430000000000078e+00 2.032939999999999969e+00 3.321299999999999919e+00 3.317439999999999944e+00 2.144489999999999785e+00 8.517160000000000508e+00
4.260679999999999801e+00 5.825000000000000178e-01 3.232920000000000016e+00 4.056189999999999962e+00 1.871920000000000028e+00 1.060730000000000040e+01 4.825800000000000090e-01 2.457539999999999836e+00 1.959059999999999846e+01 -2.229000000000000078e-02 9.112999999999999989e-01 7.891449999999999854e+00 1.991870000000000029e+00 5.142700000000000049e-01 1.127309999999999945e+01 2.125609999999999999e+00 2.186040000000000205e+00 6.888499999999999623e+00 3.685989999999999878e+00 1.082689999999999930e+00 9.059899999999999620e-01 4.226869999999999905e+00 1.893489999999999895e+00 5.700050000000000061e+00 2.261859999999999982e+00 1.212699999999999889e+00 9.350780000000000314e+00 1.777709999999999901e+00 1.885310000000000041e+00 1.592799999999999994e+00 2.609770000000000145e+00 1.199279999999999902e+00 1.968649999999999878e+01 2.059649999999999981e+00 9.781600000000000295e-01 4.456929999999999836e+00
3.138869999999999827e+00 3.416899999999999937e-01 8.258879999999999555e+00 3.872320000000000206e+00 3.024700000000000166e-01 3.183100000000000041e+00 1.732550000000000034e+00 2.503890000000000171e+00 2.096989999999999910e+00 3.803399999999999892e+00 1.550289999999999946e+00 5.506960000000000299e+00 1.178460000000000063e+00 1.556400000000000006e-01 6.724940000000000140e+00 3.506260000000000154e+00 2.591680000000000206e+00 1.743410000000000082e+01 1.730069999999999997e+00 9.910400000000000320e-01 1.085239999999999938e+01 1.320149999999999935e+00 1.450430000000000108e+00 1.766000000000000014e+01 3.912840000000000096e+00 1.543560000000000043e+00 1.214099999999999957e+00 3.956690000000000040e+00 2.599340000000000206e+00 1.074680000000000035e+01 9.504099999999999770e-01 1.512580000000000036e+00 8.680870000000000530e+00 1.545549999999999979e+00 1.293269999999999920e+00 4.194600000000000328e+00
1.519300000000000095e-01 1.722969999999999891e+00 2.945870000000000211e+00 5.634200000000000319e-01 1.310219999999999940e+00 1.050420000000000087e+01 3.363140000000000018e+00 9.673100000000000032e-01 1.957779999999999987e+01 3.514200000000000101e-01 2.591310000000000002e+00 8.185040000000000759e+00 2.615510000000000002e+00 2.437739999999999796e+00 1.146189999999999998e+01 2.521150000000000002e+00 3.921600000000000086e-01 7.052389999999999937e+00 3.683260000000000201e+00 2.019789999999999974e+00 6.040999999999999703e-01 4.163160000000000416e+00 2.507890000000000175e+00 5.254640000000000200e+00 2.469320000000000181e+00 1.268969999999999931e+00 9.192700000000000315e+00 2.121869999999999923e+00 5.303900000000000281e-01 2.060280000000000111e+00 1.180779999999999941e+00 1.826489999999999947e+00 2.008999999999999986e+01 2.066399999999999793e+00 1.625920000000000032e+00 4.247880000000000322e+00
1.317669999999999897e+00 8.473999999999999588e-02 4.478620000000000267e+00 1.137610000000000010e+00 7.354699999999999571e-01 1.854939999999999856e+01 3.508859999999999868e+00 2.152210000000000178e+00 1.882010000000000005e+01 4.108979999999999855e+00 1.591429999999999900e+00 8.886100000000000110e-01 1.739540000000000086e+00 8.812799999999999523e-01 6.607569999999999943e+00 4.222339999999999982e+00 2.284530000000000172e+00 7.863209999999999589e+00 2.068960000000000132e+00 1.707200000000000106e-01 1.587890000000000024e+00 1.956919999999999993e+00 2.063520000000000021e+00 1.139579999999999949e+01 1.756709999999999994e+00 8.290199999999999791e-01 9.049810000000000798e+00 4.214970000000000105e+00 7.742499999999999938e-01 1.039400000000000013e+01 3.875280000000000058e+00 4.657899999999999818e-01 3.256390000000000118e+00 3.717900000000000205e+00 1.614170000000000105e+00 5.612390000000000434e+00
1.887099999999999889e-01 2.006559999999999899e+00 5.801540000000000141e+00 2.198350000000000026e+00 7.764199999999999990e-01 2.077259999999999884e+00 5.858799999999999564e-01 1.478480000000000016e+00 2.025039999999999907e+01 8.018499999999999517e-01 1.333699999999999886e-01 8.375939999999999941e+00 3.127860000000000085e+00 -8.129000000000000115e-02 1.142450000000000010e+01 1.011540000000000106e+00 1.275330000000000075e+00 1.069299999999999962e+01 4.050869999999999749e+00 2.197509999999999852e+00 1.079360000000000097e+00 2.134609999999999896e+00 1.911969999999999947e+00 4.308840000000000003e+00 2.480059999999999931e+00 -7.858999999999999320e-02 2.110470000000000113e+01 2.299690000000000012e+00 4.923600000000000199e-01 6.661220000000000141e+00 4.415000000000000174e-02 7.796499999999999542e-01 3.262640000000000207e+00 2.974200000000000177e+00 5.170000000000000116e-03 9.407719999999999416e+00
2.141099999999999948e-01 1.121159999999999934e+00 1.849199999999999955e+00 1.757900000000000018e+00 6.461299999999999821e-01 8.001760000000000872e+00 3.970610000000000195e+00 4.905700000000000061e-01 6.531920000000000393e+00 3.804289999999999949e+00 1.219899999999999984e+00 8.785040000000000404e+00 2.416129999999999889e+00 2.058679999999999843e+00 1.587169999999999970e+00 1.995489999999999986e+00 1.772750000000000048e+00 6.042209999999999859e+00 2.142910000000000093e+00 1.535999999999999865e-01 1.921689999999999898e+01 1.934120000000000061e+00 1.611050000000000093e+00 1.053780000000000072e+01 3.928290000000000060e+00 7.516000000000000458e-02 1.096610000000000085e+01 4.434999999999999609e+00 1.681840000000000002e+00 4.302450000000000330e+00 4.139029999999999987e+00 1.802550000000000097e+00 1.934560000000000102e+01 2.249229999999999841e+00 6.457899999999999752e-01 4.015729999999999578e+00
