5.477915199999999984e+00 0.000000000000000000e+00 0.000000000000000000e+00 2.640083104999999986e+00 4.590363317000000443e+00 0.000000000000000000e+00 -4.888858999999999740e-03 4.173071700000000051e-02 8.560670096000000839e+00
5.250677839999999819e+00 0.000000000000000000e+00 0.000000000000000000e+00 2.499514156000000042e+00 4.387188626000000369e+00 0.000000000000000000e+00 1.700700649999999925e-01 -1.683971850000000048e-01 8.587876347999999993e+00
5.205437029999999687e+00 0.000000000000000000e+00 0.000000000000000000e+00 2.629976311000000067e+00 4.736103197000000264e+00 0.000000000000000000e+00 2.205050149999999987e-01 -7.363816300000000648e-02 8.737093141000000784e+00
5.095206799999999703e+00 0.000000000000000000e+00 0.000000000000000000e+00 2.574283986000000191e+00 4.635811571999999714e+00 0.000000000000000000e+00 2.158356050000000137e-01 -7.207880299999999685e-02 8.552076634000000510e+00
5.191622083000000387e+00 0.000000000000000000e+00 0.000000000000000000e+00 2.534599639000000071e+00 4.493038116000000137e+00 0.000000000000000000e+00 3.641579000000000343e-02 -4.275906100000000098e-02 8.719531651000000494e+00
5.151111495000000318e+00 0.000000000000000000e+00 0.000000000000000000e+00 2.602529072999999915e+00 4.686675774000000239e+00 0.000000000000000000e+00 2.182037569999999982e-01 -7.286965300000000645e-02 8.645910161999999843e+00
5.216988333999999838e+00 0.000000000000000000e+00 0.000000000000000000e+00 2.504996552000000154e+00 4.499121284000000109e+00 0.000000000000000000e+00 -4.061189800000000044e-02 -8.575193999999999872e-02 8.514046908999999275e+00
