3.267720000000000180e+00 2.971999999999999989e-02 1.023020000000000040e+00 1.835080000000000044e+00 1.692949999999999955e+00 2.465619999999999923e+00 2.403800000000000103e-01 3.600400000000000045e+00 3.157789999999999875e+00 4.218980000000000175e+00 1.403780000000000028e+00 4.846739999999999604e+00 2.045889999999999986e+00 1.874880000000000102e+00 1.332399999999999973e-01 5.466100000000000403e-01 3.272149999999999892e+00 8.582400000000000029e-01 1.139520000000000088e+00 3.114939999999999820e+00 7.249240000000000350e+00 2.894320000000000004e+00 3.457240000000000091e+00 3.554730000000000167e+00 1.840410000000000101e+00 1.816889999999999894e+00 4.973910000000000053e+00 4.834279999999999688e+00 1.565679999999999961e+00 1.853819999999999979e+01 1.868499999999999883e-01 1.454679999999999973e+00 8.549080000000000013e+00 1.901380000000000070e+00 1.514000000000000012e+00 1.009849999999999959e+01 4.385349999999999859e+00 1.922690000000000010e+00 2.272800000000000153e+00 1.943900000000000072e-01 3.275409999999999933e+00 9.805279999999999774e+00 2.941199999999999815e+00 3.256310000000000038e+00 8.815640000000000143e+00 2.434680000000000177e+00 1.486120000000000108e+00 7.218619999999999592e+00
2.068189999999999973e+00 7.258700000000000152e-01 7.733769999999999811e+00 3.737140000000000128e+00 1.833390000000000075e+00 3.537589999999999790e+00 4.837199999999999833e-01 3.553459999999999841e+00 5.311880000000000379e+00 2.951309999999999878e+00 -3.400000000000000244e-04 1.150599999999999956e-01 2.189439999999999831e+00 2.681779999999999831e+00 8.862149999999999750e+00 5.075499999999999901e+00 3.864980000000000082e+00 2.722729999999999873e+00 4.208859999999999602e+00 1.798359999999999959e+00 1.296920000000000073e+00 1.941599999999999993e+00 3.476490000000000080e+00 2.487929999999999975e+00 4.008029999999999760e+00 3.147689999999999877e+00 6.983290000000000219e+00 1.255209999999999937e+00 1.636079999999999979e+00 3.823199999999999932e+00 7.532499999999999751e-01 2.630310000000000148e+00 7.250000000000000000e+00 4.328769999999999563e+00 1.278259999999999952e+00 8.215939999999999799e+00 8.891400000000000414e-01 1.477300000000000058e+00 1.361660000000000093e+00 2.858249999999999957e+00 3.486169999999999991e+00 4.872560000000000002e+00 3.507969999999999811e+00 3.846029999999999838e+00 1.025009999999999977e+01 5.318920000000000314e+00 3.771910000000000096e+00 1.840100000000000069e-01
4.130639999999999645e+00 1.324009999999999909e+00 9.905000000000000471e-01 1.939820000000000100e+00 3.411020000000000163e+00 2.438750000000000195e+00 2.885839999999999961e+00 1.994240000000000013e+00 6.454889999999999795e+00 4.406179999999999986e+00 3.248240000000000016e+00 2.533920000000000172e+00 6.719899999999999762e-01 1.578240000000000087e+00 1.581830000000000069e+01 1.752799999999999914e+00 3.653840000000000199e+00 5.355959999999999610e+00 2.151260000000000172e+00 4.970800000000000218e-01 8.261559999999999349e+00 5.023300000000000542e-01 1.885429999999999939e+00 4.038339999999999819e+00 6.683299999999999796e-01 3.326740000000000030e+00 5.964000000000000412e-01 3.038889999999999869e+00 1.922029999999999905e+00 4.308559999999999945e+00 3.950279999999999792e+00 1.181059999999999999e+00 9.583190000000000097e+00 8.293099999999999916e-01 1.181629999999999958e+00 1.034299999999999997e+01 3.388959999999999972e+00 3.722640000000000171e+00 1.578439999999999976e+01 4.287469999999999892e+00 3.503800000000000026e+00 5.047159999999999869e+00 4.704329999999999679e+00 3.350979999999999848e+00 8.155440000000000467e+00 3.973700000000000010e-01 1.584559999999999969e+00 6.773209999999999731e+00
3.908529999999999838e+00 2.139999999999999958e-01 1.805989999999999984e+00 3.260400000000000187e+00 4.826900000000000079e-01 7.553659999999999819e+00 1.231079999999999952e+00 2.012770000000000170e+00 4.493730000000000224e+00 7.964400000000000368e-01 2.034799999999999942e-01 6.122589999999999755e+00 5.225530000000000008e+00 2.252689999999999859e+00 8.698570000000000135e+00 5.766000000000000014e-01 3.848599999999999799e+00 6.148900000000000476e-01 8.929099999999999815e-01 1.745160000000000045e+00 1.994550000000000045e+00 1.323949999999999960e+00 3.530400000000000205e-01 8.865389999999999660e+00 5.016799999999999926e+00 2.648400000000000198e-01 4.049529999999999852e+00 2.153630000000000155e+00 2.497669999999999835e+00 9.139089999999999492e+00 4.124060000000000059e+00 2.074190000000000200e+00 6.373299999999999521e-01 4.135550000000000281e+00 2.314939999999999998e+00 5.767570000000000086e+00 3.780320000000000125e+00 4.583999999999999742e-01 1.663309999999999889e+01 1.892619999999999969e+00 6.529999999999999694e-02 2.835500000000000131e+00 1.925859999999999905e+00 2.249220000000000219e+00 6.822309999999999874e+00 2.811809999999999921e+00 1.945000000000000062e-01 5.050089999999999968e+00
2.090959999999999930e+00 1.353760000000000074e+00 4.212600000000000122e+00 3.591070000000000206e+00 5.065000000000000058e-02 2.231349999999999945e+00 8.958000000000000407e-01 3.390620000000000189e+00 5.243800000000000239e+00 4.776279999999999859e+00 1.927470000000000017e+00 9.883699999999999708e-01 2.006250000000000089e+00 1.335220000000000073e+00 6.374830000000000219e+00 3.638059999999999850e+00 9.806099999999999817e-01 1.723189999999999955e+01 1.123820000000000041e+00 1.717599999999999960e-01 1.958669999999999911e+00 2.703949999999999854e+00 1.772550000000000070e+00 8.965450000000000585e+00 3.666129999999999889e+00 3.413089999999999957e+00 7.785239999999999938e+00 2.344829999999999970e+00 1.894700000000000051e+00 9.910200000000000120e-01 1.181559999999999944e+00 5.121099999999999541e-01 1.759450000000000003e+01 4.618339999999999890e+00 1.667899999999999938e+00 6.980310000000000237e+00 4.712959999999999816e+00 7.942700000000000315e-01 3.823949999999999960e+00 1.467449999999999921e+00 3.164610000000000145e+00 7.801980000000000359e+00 3.422349999999999781e+00 2.882439999999999891e+00 5.423189999999999955e+00 4.309899999999999842e-01 1.525030000000000108e+00 8.965329999999999799e+00
1.318300000000000027e+00 1.246939999999999937e+00 6.725430000000000241e+00 2.858839999999999826e+00 1.168160000000000087e+00 9.205590000000000828e+00 2.977599999999999802e+00 1.365720000000000045e+00 1.197770000000000046e+01 2.215600000000000069e-01 1.386560000000000015e+00 9.203549999999999898e+00 3.142800000000000038e-01 3.256209999999999827e+00 5.053539999999999921e+00 3.843170000000000197e+00 1.321970000000000089e+00 6.338129999999999598e+00 4.412709999999999688e+00 3.744700000000000251e-01 1.311609999999999943e+01 2.449520000000000142e+00 3.232130000000000170e+00 5.666839999999999655e+00 3.282160000000000188e+00 3.757000000000000117e+00 2.509539999999999882e+00 1.013700000000000045e+00 2.342999999999999944e-02 1.796610000000000040e+00 2.465300000000000047e+00 1.980799999999999894e+00 8.526399999999999535e-01 2.211599999999999788e+00 1.415820000000000078e+00 4.042830000000000368e+00 4.505530000000000257e+00 1.327090000000000103e+00 4.222749999999999559e+00 1.929300000000000015e+00 3.153090000000000170e+00 8.162950000000000372e+00 4.519589999999999996e+00 3.161770000000000191e+00 7.638799999999999812e+00 4.649259999999999948e+00 1.920109999999999983e+00 1.594119999999999981e+00
2.440150000000000041e+00 2.659100000000000019e+00 4.802109999999999879e+00 1.276950000000000029e+00 1.986529999999999907e+00 6.841280000000000250e+00 4.873850000000000016e+00 1.082189999999999985e+00 3.641869999999999941e+00 3.648610000000000131e+00 2.536200000000000121e-01 1.629350000000000165e+01 3.528410000000000046e+00 1.630619999999999958e+00 6.420480000000000409e+00 1.728000000000000091e-01 3.381790000000000074e+00 5.394969999999999821e+00 3.833460000000000090e+00 1.837909999999999933e+00 7.451200000000000045e-01 9.461699999999999555e-01 2.358639999999999848e+00 9.464230000000000587e+00 1.150599999999999956e-01 4.140900000000000136e-01 8.167980000000000018e+00 6.690500000000000336e-01 2.812910000000000021e+00 1.666720000000000113e+01 2.073640000000000150e+00 1.024059999999999970e+00 2.892030000000000101e+00 3.534769999999999968e+00 2.766680000000000028e+00 2.760209999999999830e+00 7.361400000000000166e-01 3.240400000000000169e+00 1.376100000000000101e+00 3.235230000000000050e+00 2.040950000000000042e+00 9.684079999999999799e+00 2.317470000000000141e+00 4.358099999999999752e-01 8.416420000000000456e+00 1.965750000000000108e+00 1.395369999999999999e+00 1.709769999999999968e+01
4.071749999999999758e+00 3.016599999999999837e-01 5.021049999999999791e+00 2.182179999999999787e+00 3.140159999999999840e+00 8.167809999999999349e+00 3.727460000000000218e+00 1.861000000000000154e-02 2.695590000000000153e+00 4.677529999999999966e+00 1.348199999999999954e-01 2.757299999999999751e-01 4.823400000000000354e+00 2.966099999999999959e+00 8.691090000000000870e+00 5.301890000000000214e+00 2.160330000000000084e+00 4.155850000000000044e+00 5.229800000000000004e+00 1.129820000000000046e+00 6.555819999999999759e+00 3.255240000000000133e+00 2.116989999999999927e+00 1.201429999999999998e+00 1.088449999999999918e+00 1.320179999999999909e+00 8.606279999999999930e+00 2.314670000000000005e+00 4.190300000000000136e-01 6.137000000000000094e-02 1.149100000000000010e+00 1.602899999999999880e-01 2.625690000000000079e+00 1.281840000000000090e+00 3.201919999999999877e+00 1.007859999999999978e+01 2.785690000000000222e+00 1.599709999999999965e+00 6.942800000000000082e+00 8.242599999999999927e-01 2.241130000000000067e+00 9.146300000000000541e-01 2.549030000000000129e+00 1.845769999999999911e+00 4.021239999999999704e+00 1.634379999999999944e+00 4.653000000000000191e-02 5.305369999999999919e+00
2.717760000000000176e+00 2.843469999999999942e+00 4.929949999999999832e+00 4.569930000000000270e+00 1.398179999999999978e+00 3.883659999999999890e+00 6.798300000000000454e-01 1.206760000000000055e+00 9.904450000000000642e+00 5.740100000000000202e-01 3.476410000000000000e+00 5.256269999999999776e+00 2.349489999999999856e+00 3.329089999999999883e+00 8.369490000000000762e+00 1.174400000000000027e-01 3.047590000000000021e+00 8.373760000000000758e+00 4.380609999999999893e+00 1.531150000000000011e+00 6.870610000000000106e+00 1.804799999999999960e+00 1.379809999999999981e+00 6.497169999999999668e+00 1.506760000000000099e+00 2.757260000000000044e+00 1.669050000000000011e+01 2.702490000000000059e+00 2.330119999999999969e+00 1.690909999999999913e+00 6.340500000000000025e-01 2.010040000000000049e+00 4.969399999999999928e-01 4.816860000000000142e+00 4.929000000000000048e-02 2.034749999999999837e+00 1.890519999999999978e+00 6.975900000000000434e-01 3.236920000000000019e+00 3.108070000000000110e+00 1.431189999999999962e+00 9.510630000000000805e+00 2.776829999999999909e+00 7.319099999999999495e-01 1.786974999999999980e+01 4.912950000000000372e+00 2.190100000000000102e-01 1.734680000000000177e+01
1.476969999999999894e+00 7.348400000000000487e-01 1.887160000000000082e+01 2.200969999999999871e+00 2.158329999999999860e+00 7.883900000000000352e-01 4.933370000000000033e+00 2.264130000000000198e+00 8.817800000000000082e-01 5.296660000000000146e+00 3.632810000000000095e+00 7.228889999999999816e+00 1.566740000000000022e+00 2.077700000000000102e+00 8.356510000000000105e+00 2.077150000000000052e+00 2.120359999999999800e+00 3.723920000000000119e+00 1.838850000000000096e+00 1.852309999999999901e+00 6.021189999999999820e+00 6.229500000000000037e-01 4.374399999999999955e-01 4.717010000000000147e+00 3.955179999999999918e+00 1.918500000000000094e+00 8.159319999999999240e+00 2.623709999999999987e+00 3.863929999999999865e+00 7.260650000000000048e+00 8.345500000000000140e-01 2.592700000000000005e-01 2.268489999999999895e+00 4.632119999999999571e+00 2.312009999999999899e+00 3.837639999999999940e+00 3.449699999999999989e+00 4.929499999999999993e-01 2.269109999999999960e+00 3.267250000000000210e+00 3.684320000000000039e+00 1.090540000000000020e+01 3.445739999999999803e+00 1.969799999999999884e-01 4.986220000000000319e+00 4.073719999999999786e+00 8.568400000000000460e-01 1.891379999999999839e+01
4.848659999999999748e+00 9.023499999999999854e-01 7.361919999999999575e+00 1.315569999999999906e+00 1.570230000000000015e+00 5.416009999999999991e+00 1.871529999999999916e+00 3.664270000000000138e+00 3.290480000000000071e+00 2.240229999999999944e+00 3.599790000000000045e+00 9.250999999999999501e-02 4.694729999999999848e+00 6.372200000000000086e-01 1.008840000000000003e+01 2.222459999999999880e+00 3.348840000000000039e+00 6.308709999999999596e+00 3.703749999999999876e+00 8.974000000000000032e-02 1.647100000000000009e+00 1.864719999999999933e+00 1.701230000000000020e+00 1.893499999999999961e+00 3.951919999999999877e+00 1.856470000000000065e+00 3.990600000000000258e-01 5.157239999999999824e+00 2.212320000000000064e+00 3.055689999999999795e+00 1.757970000000000033e+00 9.375000000000000000e-01 8.034079999999999444e+00 3.959789999999999921e+00 1.369669999999999943e+00 5.020310000000000272e+00 3.451550000000000118e+00 2.344030000000000058e+00 8.983000000000000540e+00 2.258000000000000007e-01 2.636519999999999975e+00 8.602840000000000487e+00 4.278000000000000136e-01 5.703399999999999581e-01 4.253899999999999904e-01 5.248240000000000016e+00 3.177700000000000191e+00 5.706970000000000098e+00
3.855850000000000222e+00 2.151139999999999830e+00 1.293080000000000007e+00 1.721819999999999906e+00 1.372599999999999931e-01 7.219979999999999620e+00 9.930600000000000538e-01 2.640629999999999811e+00 9.417900000000000160e-01 9.817000000000000171e-01 1.315399999999999903e-01 4.950779999999999959e+00 2.291840000000000099e+00 6.602099999999999635e-01 5.409800000000000164e-01 4.536139999999999617e+00 1.999929999999999986e+00 4.002589999999999648e+00 3.621630000000000127e+00 1.331900000000000028e-01 5.451539999999999608e+00 3.233929999999999971e+00 3.882080000000000197e+00 3.289709999999999912e+00 8.195099999999999607e-01 2.947900000000000187e+00 1.242680000000000007e+01 2.722669999999999924e+00 2.056090000000000195e+00 5.949300000000000033e+00 3.343599999999999905e-01 3.751549999999999940e+00 2.797600000000000087e+00 1.860510000000000108e+00 1.880880000000000107e+00 3.080940000000000012e+00 5.137439999999999785e+00 2.655510000000000037e+00 6.714649999999999785e+00 1.059399999999999897e+00 2.674830000000000041e+00 8.730940000000000367e+00 4.331409999999999982e+00 5.033199999999999896e-01 7.788949999999999818e+00 5.242960000000000065e+00 9.237199999999999855e-01 1.411719000000000079e+01
1.838349999999999929e+00 1.092209999999999903e+00 3.726900000000000102e+00 4.025350000000000428e+00 1.235659999999999981e+00 6.359309999999999796e+00 5.835599999999999676e-01 2.783030000000000115e+00 5.434459999999999624e+00 3.228029999999999955e+00 2.875329999999999941e+00 1.818639999999999901e+01 1.952679999999999971e+00 8.054799999999999738e-01 6.781329999999999636e+00 2.720219999999999860e+00 2.304219999999999935e+00 2.115540000000000198e+00 5.245199999999999863e-01 2.197880000000000056e+00 7.690970000000000084e+00 3.015899999999999803e+00 2.687209999999999877e+00 5.068310000000000315e+00 3.367700000000000138e-01 2.160079999999999778e+00 1.964520000000000044e+00 3.909870000000000179e+00 4.517800000000000149e-01 8.800700000000000189e-01 6.331499999999999906e-01 3.328349999999999920e+00 1.838139999999999930e+01 2.062129999999999797e+00 8.562999999999999501e-01 9.364069999999999894e+00 3.264920000000000044e+00 2.163850000000000051e+00 8.494799999999999685e+00 4.244060000000000166e+00 9.716000000000000192e-01 3.714150000000000063e+00 4.747220000000000439e+00 6.430700000000000305e-01 9.007529999999999148e+00 1.482399999999999940e+00 4.586700000000000221e-01 4.644199999999999995e-01
7.582999999999999741e-01 1.625969999999999915e+00 8.694800000000000750e+00 3.352149999999999963e+00 1.313309999999999977e+00 6.582599999999999563e-01 5.240689999999999849e+00 1.347239999999999993e+00 3.774719999999999853e+00 2.711679999999999868e+00 1.028899999999999926e+00 3.960059999999999913e+00 6.375899999999999901e-01 1.341290000000000093e+00 1.358919999999999906e+00 4.550089999999999968e+00 5.900000000000000296e-04 8.928250000000000242e+00 2.016010000000000080e+00 3.128120000000000012e+00 1.226300000000000029e-01 4.013829999999999565e+00 3.281359999999999832e+00 2.432970000000000077e+00 3.262049999999999894e+00 1.592260000000000009e+00 8.914080000000000226e+00 5.165110000000000312e+00 1.343860000000000054e+00 6.723180000000000156e+00 4.272450000000000081e+00 3.308019999999999960e+00 5.212340000000000195e+00 5.159329999999999750e+00 2.861460000000000115e+00 1.524249999999999972e+01 2.882670000000000066e+00 1.475170000000000092e+00 6.371620000000000061e+00 2.182420000000000027e+00 3.598310000000000120e+00 7.804859999999999687e+00 1.182760000000000034e+00 2.962390000000000079e+00 5.410029999999999895e+00 1.426099999999999923e+00 3.092849999999999877e+00 2.401359999999999939e+00
2.840980000000000061e+00 2.810719999999999885e+00 7.243850000000000122e+00 4.282879999999999576e+00 3.508360000000000145e+00 1.780379999999999896e+01 2.305480000000000196e+00 6.711599999999999788e-01 9.973670000000000258e+00 4.470799999999999774e-01 7.141000000000000125e-02 2.760050000000000114e+00 1.149289999999999923e+00 1.412749999999999950e+00 8.011449999999999960e+00 2.678780000000000161e+00 1.900230000000000086e+00 8.394000000000000072e-02 4.120949999999999669e+00 1.893080000000000096e+00 2.985489999999999977e+00 1.327239999999999975e+00 7.054000000000000548e-02 5.913389999999999702e+00 4.603690000000000282e+00 1.893450000000000077e+00 5.577119999999999855e+00 3.515890000000000182e+00 2.030599999999999905e-01 4.476490000000000080e+00 3.130600000000000049e-01 1.993700000000000028e+00 8.979399999999999604e-01 2.652590000000000003e+00 3.662440000000000140e+00 1.939680000000000071e+00 5.001900000000000235e-01 3.026149999999999896e+00 9.608480000000000132e+00 3.813870000000000093e+00 2.234370000000000189e+00 9.427870000000000417e+00 1.659170000000000034e+00 1.992949999999999999e+00 3.833559999999999857e+00 1.788429999999999964e+00 2.739360000000000017e+00 1.750819999999999865e+01
4.760119999999999685e+00 1.699030000000000040e+00 1.896290000000000031e+00 1.228590000000000071e+00 2.780139999999999834e+00 3.622170000000000112e+00 2.562149999999999928e+00 1.457189999999999985e+00 5.227979999999999627e+00 2.199559999999999960e+00 7.544399999999999995e-01 2.259040000000000159e+00 3.962930000000000064e+00 3.075050000000000061e+00 5.542869999999999742e+00 9.221500000000000252e-01 9.459300000000000486e-01 7.743999999999999495e-02 3.816040000000000099e+00 2.236400000000000055e-01 5.987999999999999989e-01 3.515089999999999826e+00 8.274899999999999478e-01 7.269459999999999589e+00 3.461539999999999839e+00 2.304019999999999957e+00 8.922660000000000480e+00 5.238010000000000055e+00 3.360100000000000087e+00 8.132979999999999876e+00 1.652090000000000058e+00 2.803739999999999899e+00 1.249419999999999975e+00 1.481800000000000006e+00 3.251510000000000122e+00 6.034519999999999662e+00 4.088639999999999830e+00 3.504919999999999813e+00 3.100890000000000146e+00 2.476989999999999803e+00 4.038170000000000037e+00 9.178900000000000503e+00 -6.408999999999999420e-02 1.097350000000000048e+00 5.414740000000000109e+00 1.250340000000000007e+00 1.421159999999999979e+00 7.546999999999999709e+00
2.586359999999999992e+00 2.518900000000000028e-01 8.010559999999999903e+00 2.012299999999999922e-01 3.639190000000000147e+00 5.661609999999999587e+00 1.973049999999999971e+00 1.866379999999999928e+00 3.732130000000000170e+00 2.695299999999999918e-01 2.709540000000000060e+00 3.508100000000000107e-01 2.033999999999999975e-01 1.425400000000000000e-01 8.185900000000000176e+00 1.729070000000000107e+00 1.856849999999999890e+00 6.241010000000000169e+00 2.335890000000000022e+00 2.659380000000000077e+00 1.142910000000000093e+00 3.206350000000000033e+00 4.202699999999999769e-01 2.836939999999999795e+00 4.371100000000000207e+00 7.083300000000000152e-01 8.958500000000000352e-01 2.665500000000000091e-01 3.494079999999999853e+00 2.725779999999999870e+00 1.708129999999999926e+00 2.387760000000000105e+00 9.522930000000000561e+00 3.135279999999999845e+00 3.668340000000000156e+00 5.649110000000000298e+00 4.017500000000000071e+00 2.368920000000000137e+00 9.337440000000000850e+00 4.225869999999999571e+00 1.704409999999999981e+00 6.805609999999999715e+00 1.602209999999999912e+00 8.982499999999999929e-01 8.667700000000000404e-01 4.325590000000000046e+00 1.842100000000000071e+00 4.360599999999999810e+00
2.389299999999999979e+00 8.465899999999999537e-01 9.383639999999999759e+00 4.979070000000000107e+00 3.604880000000000084e+00 1.852389999999999981e+00 4.408909999999999663e+00 3.045380000000000198e+00 4.903209999999999624e+00 3.803279999999999994e+00 1.469049999999999967e+00 1.439370000000000038e+00 3.768800000000000150e+00 2.578110000000000124e+00 1.431889999999999930e+01 2.411420000000000119e+00 3.322200000000000042e+00 2.267939999999999845e+00 3.547550000000000203e+00 2.357509999999999994e+00 7.740269999999999762e+00 4.671909999999999563e+00 3.464800000000000102e-01 9.502150000000000318e+00 3.128530000000000033e+00 1.102130000000000054e+00 4.099859999999999616e+00 3.011680000000000135e+00 2.587569999999999926e+00 1.094209999999999994e+01 1.205230000000000024e+00 2.965899999999999981e+00 8.022990000000000066e+00 1.316040000000000099e+00 1.487209999999999921e+00 1.520799999999999930e+00 1.730320000000000080e+00 2.688489999999999824e+00 5.411539999999999573e+00 2.507919999999999927e+00 7.136599999999999611e-01 1.435040000000000049e+01 4.323299999999999921e-01 1.010280000000000067e+00 3.836650000000000116e+00 5.097100000000000186e+00 9.904800000000000271e-01 6.808320000000000149e+00
3.344289999999999985e+00 1.932649999999999979e+00 9.155760000000000787e+00 1.655680000000000041e+00 1.878349999999999964e+00 3.877099999999999991e+00 2.820400000000000129e-01 3.682539999999999925e+00 2.359989999999999810e+00 4.471230000000000260e+00 1.330389999999999961e+00 1.176639999999999908e+00 2.182290000000000063e+00 4.930800000000000183e-01 7.675259999999999749e+00 2.623099999999999987e+00 3.554110000000000102e+00 2.353079999999999838e+00 1.067630000000000079e+00 2.262030000000000207e+00 6.840449999999999697e+00 9.457000000000000128e-02 3.266000000000000014e-01 5.747250000000000192e+00 4.227730000000000210e+00 1.700169999999999959e+00 3.862130000000000063e+00 1.658290000000000042e+00 1.548040000000000083e+00 1.061890000000000001e+00 8.239600000000000257e-01 1.670169999999999932e+00 9.242319999999999425e+00 2.993689999999999962e+00 4.567800000000000193e-01 5.450669999999999682e+00 5.207899999999999752e-01 3.220600000000000129e+00 1.941529999999999845e+01 3.777680000000000149e+00 2.134529999999999816e+00 6.658350000000000435e+00 4.926619999999999777e+00 3.372970000000000024e+00 8.946369999999999933e+00 3.379239999999999799e+00 2.765829999999999789e+00 1.954060000000000130e+01
1.018729999999999913e+00 1.807900000000000063e+00 8.742409999999999570e+00 1.025190000000000046e+00 2.346249999999999947e+00 5.672099999999999920e-01 1.868649999999999922e+00 1.395210000000000061e+00 6.117359999999999687e+00 5.041140000000000398e+00 3.840999999999999970e-01 1.365659999999999918e+01 3.018060000000000187e+00 3.520729999999999915e+00 4.935459999999999958e+00 3.657389999999999919e+00 1.747940000000000049e+00 8.720190000000000552e+00 1.685610000000000053e+00 1.576619999999999910e+00 3.968360000000000110e+00 4.449980000000000047e+00 1.615339999999999998e+00 6.125989999999999824e+00 5.178340000000000387e+00 3.495690000000000186e+00 8.432740000000000791e+00 3.754370000000000207e+00 2.141910000000000203e+00 1.128759999999999986e+00 6.247500000000000275e-01 3.487299999999999844e+00 4.942929999999999602e+00 5.154359999999999609e+00 9.575999999999999790e-02 2.150819999999999954e+00 2.361439999999999984e+00 8.021999999999999964e-02 8.041489999999999583e+00 2.622939999999999827e+00 2.600399999999999934e-01 8.613999999999999435e-02 2.957310000000000105e+00 2.894399999999999751e-01 2.752920000000000034e+00 4.459679999999999644e+00 1.849399999999999933e+00 3.842400000000000038e+00
8.913999999999999702e-01 1.824950000000000072e+00 4.028749999999999609e+00 5.127799999999999692e+00 1.044500000000000012e-01 2.533490000000000020e+00 9.335099999999999509e-01 1.801150000000000029e+00 9.345610000000000639e+00 3.757410000000000139e+00 2.191419999999999924e+00 1.505910000000000082e+01 1.390619999999999967e+00 1.894889999999999963e+00 4.806799999999999962e-01 4.741950000000000109e+00 3.600350000000000161e+00 5.087279999999999802e+00 4.170350000000000001e+00 1.883219999999999894e+00 6.743839999999999613e+00 3.741089999999999804e+00 2.213909999999999823e+00 3.965939999999999799e+00 3.946940000000000115e+00 2.391539999999999999e+00 9.038909999999999556e+00 2.584799999999999875e-01 3.151000000000000328e-02 3.789999999999999966e-03 3.093249999999999833e+00 3.411699999999999733e-01 2.373200000000000032e-01 2.209340000000000082e+00 3.585189999999999877e+00 5.110330000000000261e+00 2.146659999999999791e+00 3.671860000000000124e+00 2.474920000000000009e+00 1.539109999999999978e+00 1.601900000000000102e+00 6.755320000000000213e+00 2.874839999999999840e+00 3.154000000000000137e-01 7.967369999999999841e+00 -4.503000000000000058e-02 3.689709999999999823e+00 7.583199999999999719e+00
5.082880000000000287e+00 3.536929999999999907e+00 5.271090000000000053e+00 9.341500000000000359e-01 1.495710000000000095e+00 8.900550000000000850e+00 2.902309999999999945e+00 3.612960000000000171e+00 3.367800000000000238e-01 2.141989999999999839e+00 3.356390000000000207e+00 8.101060000000000372e+00 2.810420000000000140e+00 1.884419999999999984e+00 2.329239999999999977e+00 3.478470000000000173e+00 1.711170000000000080e+00 6.463000000000000078e+00 4.847920000000000229e+00 3.686179999999999790e+00 8.010149999999999437e+00 4.307000000000000273e-01 2.076569999999999805e+00 3.793789999999999996e+00 3.416290000000000049e+00 1.735020000000000007e+00 4.337349999999999817e+00 3.860419999999999963e+00 3.820720000000000116e+00 2.665919999999999845e+00 5.178749999999999964e+00 1.925370000000000026e+00 1.606400000000000050e+00 1.490359999999999907e+00 1.414760000000000018e+00 5.455999999999999739e-02 2.056669999999999998e+00 3.634679999999999911e+00 5.153909999999999769e+00 1.363459999999999894e+00 1.488099999999999978e-01 2.556299999999999795e+00 3.396409999999999929e+00 1.637059999999999960e+00 8.569470000000000809e+00 9.245400000000000285e-01 1.688520000000000021e+00 6.470550000000000246e+00
2.561170000000000169e+00 1.991889999999999938e+00 4.592010000000000147e+00 3.451499999999999790e+00 3.524599999999999955e+00 3.503559999999999786e+00 3.771700000000000053e-01 5.499399999999999844e-01 1.030540000000000056e+01 -1.219100000000000045e-01 2.993710000000000093e+00 1.461110000000000042e+01 2.744359999999999911e+00 2.490800000000000125e+00 1.441900000000000048e+01 7.453100000000000280e-01 3.921100000000000141e-01 4.711380000000000123e+00 4.643279999999999852e+00 2.617809999999999970e+00 5.489799999999999791e+00 4.634960000000000413e+00 1.802850000000000064e+00 2.816819999999999879e+00 6.728499999999999481e-01 2.595720000000000027e+00 8.905810000000000670e+00 1.854619999999999935e+00 7.913200000000000234e-01 1.931799999999999906e-01 4.370409999999999684e+00 8.377099999999999547e-01 1.002769999999999939e+00 3.180320000000000036e+00 3.652199999999999891e-01 6.059400000000000119e+00 1.553350000000000009e+00 2.775580000000000158e+00 1.949940000000000007e+00 1.854500000000000037e+00 2.501829999999999998e+00 6.799690000000000012e+00 9.989000000000000656e-02 7.780799999999999939e-01 7.091210000000000235e+00 2.684120000000000061e+00 5.455200000000000049e-01 9.031209999999999738e+00
2.832500000000000018e+00 2.289130000000000109e+00 4.732219999999999871e+00 5.114419999999999966e+00 1.212650000000000006e+00 8.562870000000000203e+00 1.579639999999999933e+00 2.596649999999999903e+00 6.900100000000000122e+00 8.137999999999999678e-01 2.620210000000000150e+00 9.399800000000000821e+00 3.174879999999999924e+00 4.716500000000000137e-01 4.493099999999999872e-01 2.127190000000000136e+00 8.605500000000000371e-01 8.227619999999999933e+00 3.707770000000000010e+00 3.060820000000000096e+00 9.424500000000000099e+00 9.747500000000000053e-01 1.249699999999999978e-01 1.386640000000000095e+00 3.243879999999999875e+00 4.035299999999999998e-01 6.208580000000000432e+00 2.921910000000000007e+00 2.262589999999999879e+00 2.007829999999999782e+00 1.107660000000000089e+00 3.655700000000000061e-01 4.355649999999999800e+00 5.206949999999999967e+00 4.353400000000000047e-01 6.886169999999999902e+00 1.586340000000000083e+00 1.591439999999999966e+00 1.686270000000000024e+01 5.045729999999999826e+00 2.135520000000000085e+00 5.110599999999999810e+00 4.521880000000000344e+00 2.257670000000000066e+00 1.698229999999999862e+01 3.940970000000000084e+00 6.690599999999999881e-01 3.411979999999999791e+00