2.682669999999999777e-01 -1.043039999999999939e-01 3.034560000000000035e-01 -3.226760000000000184e-01 -2.434159999999999935e-01 -7.414199999999999957e-02 9.557139999999999525e-01 1.206293999999999977e+00 2.343496000000000024e+00 5.829539999999999722e-01 5.450580000000000425e-01 1.512580000000000036e-01 1.244239000000000095e+00 -1.567900000000000071e+00 -1.557862999999999998e+00 -9.118700000000000416e-02 9.742229999999999501e-01 3.024609999999999799e-01 -2.257357999999999976e+00 2.589678000000000146e+00 -1.003066999999999931e+00 2.521249999999999880e-01 7.027250000000000441e-01 4.264180000000000192e-01 -9.904770000000000518e-01 -3.068310000000000204e-01 -1.975470000000000004e-01 -1.007149000000000072e+00 1.165683000000000025e+00 -4.327369999999999828e-01 -1.426309000000000049e+00 -9.175619999999999887e-01 -1.528242000000000100e+00 5.965380000000000127e-01 -3.729759999999999742e-01 1.713290000000000091e-01 -1.171637000000000040e+00 -2.249179999999999957e+00 -6.027449999999999752e-01 -4.518799999999999900e-02 2.958210000000000006e-01 1.006448000000000009e+00 9.221369999999999845e-01 5.600460000000000438e-01 4.113080000000000069e-01 2.490009999999999835e+00 -2.277359000000000133e+00 2.801679999999999726e-01
-1.998949999999999894e-01 -8.821379999999999777e-01 -9.614380000000000148e-01 2.421929999999999916e-01 -6.946179999999999577e-01 5.971950000000000314e-01 -9.486470000000000180e-01 9.982830000000000314e-01 -1.809525999999999968e+00 -5.154959999999999543e-01 -2.160489999999999911e-01 1.352780000000000094e-01 1.250448999999999922e+00 -2.863930000000000087e-01 1.467351999999999990e+00 -1.718159999999999965e-01 -4.315410000000000079e-01 3.225629999999999886e-01 -1.089134000000000047e+00 3.585510000000000086e-01 -9.940050000000000274e-01 7.643370000000000442e-01 5.603559999999999652e-01 -2.911159999999999859e-01 -4.505120000000000235e-01 7.412140000000000395e-01 -3.979980000000000184e-01 -3.859940000000000038e-01 -5.237380000000000368e-01 5.323700000000000099e-01 -1.225136000000000003e+00 -7.040610000000000479e-01 1.752400000000000138e-02 6.971810000000000507e-01 -6.441710000000000491e-01 8.098090000000000011e-01 1.395010000000000083e+00 5.840710000000000068e-01 -1.059879999999999989e-01 -1.199120000000000047e-01 9.202439999999999509e-01 1.258740000000000137e-01 5.630929999999999547e-01 7.395650000000000279e-01 5.381380000000000052e-01 1.942790000000000072e-01 -5.195750000000000091e-01 1.396999999999999978e-02
-7.466880000000000184e-01 1.311881999999999993e+00 -2.177530000000000021e-01 5.231900000000000439e-01 2.361010000000000053e-01 1.264151000000000025e+00 8.200239999999999752e-01 -3.908739999999999992e-01 3.203660999999999870e+00 -4.462599999999999900e-02 -4.343299999999999939e-02 8.134379999999999944e-01 1.054339999999999999e-01 1.811525000000000052e+00 -1.757071999999999967e+00 -1.192736999999999936e+00 4.492940000000000267e-01 -1.394440000000000124e-01 -4.929379999999999873e-01 -6.796210000000000306e-01 -3.309119999999999839e-01 7.541369999999999463e-01 -1.066500000000000004e+00 -3.305910000000000237e-01 -8.135100000000000664e-02 -2.230481999999999854e+00 2.105319999999999969e-01 -7.439810000000000034e-01 -1.953071000000000002e+00 -3.860885000000000122e+00 -2.183860999999999830e+00 1.593023999999999996e+00 3.440690000000000137e-01 1.998677999999999955e+00 -1.074490000000000028e-01 -1.939160000000000050e-01 -8.907199999999999840e-02 -3.702349999999999808e-01 5.231090000000000462e-01 1.167164000000000090e+00 2.227631000000000139e+00 1.628875999999999991e+00 1.492580000000000018e-01 -1.115323000000000064e+00 -4.459640000000000271e-01 5.736999999999999739e-02 3.275299999999999878e-01 -7.112969999999999571e-01
1.816089999999999927e-01 -7.529979999999999452e-01 7.069980000000000153e-01 1.424501000000000017e+00 -5.727179999999999493e-01 1.578799999999999995e-02 2.602169999999999761e-01 1.073323000000000027e+00 -2.261940000000000062e-01 -1.625000999999999918e+00 2.530350000000000099e-01 1.104198999999999931e+00 -1.850028000000000006e+00 1.143480000000000052e-01 -8.815260000000000318e-01 3.143520000000000203e-01 -5.365520000000000289e-01 -7.574710000000000054e-01 -1.006520999999999999e+00 2.585312000000000054e+00 -2.294730000000000103e-01 -2.460649999999999782e+00 3.150895999999999919e+00 -7.704710000000000170e-01 -6.250949999999999562e-01 -4.940590000000000259e-01 -7.539649999999999963e-01 3.654827000000000048e+00 -3.270379999999999843e+00 1.106116000000000099e+00 6.199500000000000149e-02 8.205130000000000479e-01 -9.811720000000000441e-01 8.988080000000000513e-01 -5.148310000000000386e-01 1.338320000000000065e-01 3.351699999999999818e-02 -1.669569999999999943e-01 5.317330000000000112e-01 3.129100000000000215e-01 -2.014502999999999933e+00 9.761830000000000229e-01 -1.575749999999999929e-01 9.707599999999999563e-02 8.182799999999999796e-02 5.821340000000000403e-01 2.284930000000000017e-01 -5.640499999999999681e-02
1.454792000000000085e+00 7.983799999999999786e-01 -3.760285000000000100e+00 -1.916925999999999908e+00 -8.698559999999999626e-01 -1.731967999999999952e+00 2.396439999999999959e-01 -4.299417000000000044e+00 2.381403000000000159e+00 -2.354499999999999996e-02 2.063540000000000096e-01 -7.071349999999999580e-01 1.360333000000000014e+00 8.138649999999999496e-01 2.522956000000000198e+00 -2.537679999999999936e-01 -2.912779999999999814e-01 5.258490000000000109e-01 3.968809999999999838e-01 -6.760460000000000358e-01 9.630630000000000024e-01 1.310434000000000099e+00 -2.030377999999999794e+00 1.302000999999999964e+00 8.005130000000000301e-01 1.475184999999999969e+00 1.334559999999999969e+00 6.019229999999999858e-01 3.676269999999999816e-01 -7.394269999999999454e-01 -2.038470000000000004e-01 -2.703639999999999932e-01 8.667900000000000604e-02 4.504349999999999743e-01 -1.203718999999999983e+00 -3.731149999999999967e+00 -1.316565999999999903e+00 3.540713000000000221e+00 1.547570000000000057e-01 -2.214627000000000123e+00 1.845082000000000111e+00 -2.904990000000000072e-01 8.197799999999999532e-02 1.564451999999999954e+00 -1.237538000000000027e+00 -7.676560000000000050e-01 -9.705989999999999895e-01 2.926733000000000029e+00
-1.116705999999999976e+00 7.855349999999999833e-01 5.145700000000000274e-02 6.774139999999999606e-01 5.930499999999999661e-01 3.697070000000000078e-01 -1.603928999999999938e+00 1.431464000000000070e+00 -1.576783999999999963e+00 2.116999999999999993e-01 -2.330399999999999971e-01 -5.202229999999999910e-01 -6.160750000000000393e-01 -6.169080000000000119e-01 5.466870000000000340e-01 -2.258999999999999897e-01 -9.437800000000000356e-02 1.114770999999999956e+00 1.408587000000000033e+00 -1.261865000000000014e+00 2.290490999999999833e+00 2.007918000000000092e+00 -3.598199999999999732e-01 -1.738760000000000028e-01 1.115868000000000082e+00 -5.701730000000000409e-01 -2.910039999999999849e-01 -8.980000000000000204e-01 2.126639999999999919e-01 1.219620000000000010e-01 -5.884489999999999998e-01 -4.224559999999999982e-01 -4.049699999999999966e-01 -1.752480000000000038e+00 4.473920000000000119e-01 1.185469999999999996e-01 6.439240000000000519e-01 6.824449999999999683e-01 -2.308310000000000084e+00 -5.735590000000000410e-01 -6.261489999999999556e-01 -4.767999999999999669e-03 3.999719999999999942e-01 2.776279999999999859e-01 7.274760000000000115e-01 9.097150000000000514e-01 -2.453879999999999950e-01 -6.116200000000000109e-02
-7.234850000000000447e-01 9.813009999999999788e-01 -7.671440000000000481e-01 -4.528050000000000130e-01 4.919500000000000262e-02 4.671069999999999944e-01 -1.025492000000000070e+00 8.664479999999999960e-01 -6.323689999999999589e-01 6.957699999999999996e-02 -5.081379999999999786e-01 -1.446159999999999946e-01 1.731011000000000077e+00 -9.314869999999999539e-01 1.013068000000000080e+00 -6.410789999999999544e-01 -2.629980000000000095e-01 7.823080000000000034e-01 -4.424100000000000255e-02 -1.131974000000000036e+00 -9.731119999999999770e-01 -5.825939999999999452e-01 -9.260460000000000358e-01 4.231570000000000054e-01 -2.739831000000000127e+00 4.903199999999999920e-02 -4.067629999999999857e-01 -2.111396000000000051e+00 3.188593000000000011e+00 -1.935081000000000051e+00 5.810070000000000512e-01 -2.280290000000000095e-01 -3.169319999999999915e-01 6.594430000000000014e-01 1.625353999999999965e+00 4.039299999999999835e-02 5.497159999999999824e-01 3.300609999999999933e-01 1.192493999999999943e+00 1.577369000000000021e+00 8.142129999999999646e-01 -6.480299999999999949e-02 1.567852000000000023e+00 -9.461519999999999930e-01 -5.753610000000000113e-01 1.584948000000000023e+00 -2.969374000000000180e+00 1.897653000000000034e+00
-1.344122000000000039e+00 -1.786839000000000066e+00 -1.007109999999999950e+00 1.483541999999999916e+00 3.348307999999999840e+00 -1.006469999999999976e+00 5.743019999999999792e-01 9.390199999999999658e-01 1.722200000000000120e-01 7.183239999999999625e-01 7.244500000000000384e-01 3.728480000000000127e-01 -7.857079999999999620e-01 3.937800000000000189e-01 -9.741400000000000059e-01 4.376419999999999755e-01 -1.561619999999999953e-01 -5.074349999999999694e-01 1.517616999999999994e+00 1.416263999999999967e+00 2.170415999999999901e+00 4.006480000000000041e-01 -4.372300000000000075e-01 4.305900000000000005e-02 -1.412713000000000108e+00 -1.113085000000000102e+00 8.110300000000000287e-01 -1.055126999999999926e+00 -9.787120000000000264e-01 1.983400000000000094e-02 -6.625599999999999545e-02 3.340440000000000076e-01 2.848149999999999848e-01 -7.547939999999999650e-01 2.474499999999999963e-02 2.587025999999999826e+00 1.491192999999999991e+00 -2.376536000000000204e+00 -2.611575000000000202e+00 -5.037430000000000518e-01 -7.836049999999999960e-01 -2.611700000000000133e-02 -5.946200000000000097e-02 8.867770000000000374e-01 -4.980899999999999772e-01 -6.413419999999999677e-01 -4.352190000000000225e-01 1.696890000000000065e-01
2.013275000000000148e+00 -8.882800000000000418e-02 -1.159369999999999984e-01 -1.050022999999999929e+00 1.495136999999999938e+00 -1.561399999999999941e-02 1.699670000000000070e-01 2.742020000000000013e-01 -3.437819999999999765e-01 -1.448407000000000000e+00 -1.610184000000000060e+00 5.514210000000000500e-01 4.370499999999999940e-01 -1.272717000000000098e+00 -1.449848000000000026e+00 -1.258610999999999924e+00 4.931860000000000133e-01 3.137159999999999949e-01 -1.030329999999999968e+00 -6.994770000000000154e-01 -8.300610000000000488e-01 4.122230000000000061e-01 4.114709999999999757e-01 1.025381000000000098e+00 4.570920000000000094e+00 -2.041850000000000165e+00 -3.773536000000000001e+00 5.863869999999999916e-01 6.048540000000000028e-01 4.345539999999999958e-01 -5.160839999999999872e-01 -1.926766999999999896e+00 3.677249000000000212e+00 -3.219339999999999979e-01 -9.306000000000000036e-03 -2.574069999999999969e-01 2.047660000000000036e-01 3.226160000000000139e-01 -1.847280000000000033e-01 1.449581999999999926e+00 1.185713000000000017e+00 7.787290000000000045e-01 -6.792120000000000379e-01 4.327349999999999808e-01 5.314219999999999500e-01 -3.539568000000000048e+00 2.429216999999999960e+00 -3.415599999999999747e-01
-6.909750000000000059e-01 1.074945999999999957e+00 -8.198109999999999564e-01 5.540479999999999849e-01 -5.103060000000000374e-01 9.810569999999999569e-01 1.161100000000000049e-01 -7.946879999999999500e-01 5.508849999999999580e-01 4.585600000000000231e-01 5.463909999999999600e-01 -4.922909999999999786e-01 -1.008407000000000053e+00 -2.610020000000000118e-01 1.034426999999999985e+00 1.338370000000000115e-01 3.786530000000000173e-01 -1.148126999999999898e+00 -2.763369999999999993e-01 2.042466999999999810e+00 -2.641999999999999817e-03 -3.798440000000000150e-01 -1.146814000000000000e+00 -9.560000000000000789e-03 3.404429999999999956e-01 -1.222590000000000066e-01 4.417800000000000060e-01 7.062169999999999837e-01 -1.186857999999999969e+00 8.191690000000000360e-01 -2.501740000000000075e-01 2.504709999999999992e-01 3.816910000000000025e-01 7.965729999999999755e-01 -1.052086000000000077e+00 -1.135172000000000070e+00 1.719030000000000002e-01 -3.262959999999999749e-01 9.708919999999999773e-01 -7.503700000000000647e-02 -3.910199999999999787e-02 -1.047914000000000012e+00 -5.970560000000000311e-01 9.508349999999999858e-01 2.400069999999999981e-01 1.379999999999999933e-04 1.956479999999999886e-01 -7.643900000000000139e-01
-1.350240000000000107e+00 -3.071099999999999872e-02 2.044360000000000066e-01 4.680600000000000038e-02 -2.432195999999999803e+00 -1.525965000000000016e+00 -2.365980000000000028e-01 -4.677939999999999876e-01 1.623798999999999992e+00 2.580833999999999850e+00 -1.680768999999999957e+00 -1.983819999999999917e+00 1.615320000000000089e-01 -1.351439999999999864e-01 -8.837059999999999915e-01 2.075544999999999973e+00 1.089419999999999972e-01 7.915600000000000414e-02 1.535835000000000061e+00 -1.014775999999999900e+00 2.953009999999999913e+00 5.116169999999999884e-01 1.092680000000000096e+00 -7.347409999999999775e-01 -2.758650000000000269e-01 1.578697999999999935e+00 -9.906490000000000018e-01 -1.239780000000000049e-01 -7.506200000000000372e-02 -1.068999999999999950e-01 4.330220000000000180e-01 3.743099999999999900e-02 7.174139999999999961e-01 -1.098335999999999979e+00 -5.050780000000000269e-01 -1.428860000000000130e-01 -1.450960000000000027e+00 7.505669999999999842e-01 -8.181900000000000284e-02 1.710901000000000005e+00 1.359879999999999978e+00 4.688680000000000070e-01 -3.703085999999999878e+00 6.319460000000000077e-01 9.199289999999999967e-01 -8.170300000000000340e-01 7.813860000000000250e-01 -5.161249999999999449e-01
1.263489999999999891e-01 1.127761000000000013e+00 9.323090000000000543e-01 6.270289999999999475e-01 1.304459999999999953e+00 -2.641490000000000227e-01 3.270959999999999979e-01 -2.958319999999999839e-01 -1.352289999999999992e+00 2.839800000000000102e-01 2.042760000000000131e-01 2.903660000000000130e-01 6.454799999999999427e-02 -8.801029999999999687e-01 -4.079599999999999893e-02 2.656959999999999877e-01 -6.102090000000000014e-01 3.955529999999999879e-01 1.200798999999999950e+00 -5.695719999999999672e-01 4.656159999999999743e-01 -7.540000000000000036e-01 2.174210000000000031e-01 -1.788664999999999949e+00 -8.613099999999999923e-02 -2.628199999999999981e-02 1.128262000000000098e+00 -1.342937000000000047e+00 9.801990000000000425e-01 6.121640000000000414e-01 -2.983190000000000008e-01 1.377737999999999907e+00 -6.907680000000000486e-01 -5.826100000000000029e-02 -3.190339999999999843e-01 4.197890000000000232e-01 2.608269999999999755e-01 -1.612581999999999960e+00 -9.836500000000000243e-01 -5.075490000000000279e-01 -1.124818000000000096e+00 9.852720000000000367e-01 -9.381000000000000449e-03 8.547979999999999468e-01 3.735379999999999812e-01 -9.974600000000000133e-02 -6.282200000000000006e-01 -4.825519999999999810e-01
-1.604586999999999986e+00 -1.462784000000000084e+00 9.401289999999999925e-01 2.034459000000000017e+00 -1.975972999999999979e+00 -2.498650000000000038e-01 -1.130270000000000025e-01 1.230269999999999975e-01 -1.524135999999999935e+00 1.566180000000000072e-01 -4.939439999999999942e-01 4.293680000000000274e-01 -9.804460000000000397e-01 -1.342195999999999945e+00 -3.434159999999999990e-01 8.094839999999999813e-01 7.123209999999999820e-01 -5.928219999999999601e-01 1.093263000000000096e+00 2.712877000000000205e+00 1.291611999999999982e+00 -3.907249999999999890e-01 1.232302999999999926e+00 -6.826039999999999885e-01 -1.743999999999999995e-01 4.562419999999999809e-01 8.655799999999999605e-02 -3.179440000000000044e-01 1.436088999999999949e+00 1.114850000000000008e-01 -7.047689999999999788e-01 -2.419284000000000212e+00 -1.916922999999999933e+00 -2.573287000000000102e+00 -3.476516999999999857e+00 1.870516999999999985e+00 1.125281999999999893e+00 4.972961999999999883e+00 -2.453783000000000047e+00 5.286680000000000268e-01 -4.857670000000000043e-01 -5.349999999999999938e-04 -6.949099999999999722e-02 -2.075025999999999815e+00 1.421688999999999981e+00 1.180900000000000061e+00 2.085669999999999913e+00 1.612724999999999964e+00
1.876150999999999902e+00 2.207403999999999922e+00 1.956225000000000103e+00 -1.548300000000000023e-02 -8.204839999999999911e-01 7.134279999999999511e-01 1.966489999999999905e-01 -6.864099999999999369e-02 3.137980000000000214e-01 -7.168740000000000112e-01 7.285800000000000054e-01 -4.298730000000000051e-01 -5.123750000000000249e-01 -1.579034999999999966e+00 -1.156485999999999903e+00 8.853239999999999998e-01 -4.429998999999999576e+00 -2.725779999999999870e-01 6.339240000000000430e-01 4.944850000000000079e-01 -3.843239999999999990e-01 2.133349999999999969e-01 -4.703490000000000171e-01 -2.747040000000000037e-01 -1.599112000000000089e+00 3.240409999999999791e+00 -6.275699999999999334e-02 8.986900000000000444e-02 -5.800840000000000440e-01 -1.754995000000000083e+00 -2.702516999999999836e+00 -2.094779999999999975e-01 -2.124010000000000065e-01 -9.300770000000000426e-01 1.140492999999999979e+00 5.388899999999999940e-02 -5.906679999999999708e-01 5.217209999999999903e-01 -3.455909999999999815e-01 -5.952589999999999826e-01 -1.542904000000000053e+00 1.287719999999999976e-01 2.911522999999999861e+00 4.520480000000000054e-01 -3.805180000000000229e-01 8.555899999999999617e-01 9.158340000000000369e-01 2.108114000000000043e+00
1.180762000000000089e+00 1.354309999999999958e-01 2.019410000000000094e-01 5.300799999999999956e-01 5.141829999999999457e-01 3.716949999999999976e-01 1.502179999999999904e-01 -5.363350000000000062e-01 1.140759999999999968e-01 -2.496039999999999925e-01 8.625399999999999734e-02 -2.753699999999999898e-02 -7.003200000000000536e-01 -6.153140000000000276e-01 -2.574589999999999934e-01 1.822883000000000031e+00 -1.980199999999999960e+00 2.548271000000000175e+00 -5.393879999999999786e-01 6.103699999999999681e-01 -1.828440000000000065e-01 -9.436809999999999921e-01 4.287170000000000147e-01 -1.146179999999999977e+00 6.956639999999999491e-01 6.596849999999999659e-01 4.919450000000000212e-01 -8.138090000000000046e-01 -1.377674999999999983e+00 1.661330000000000029e-01 -1.079210000000000030e-01 1.017180000000000029e-01 -3.068540000000000156e-01 5.243020000000000458e-01 1.994930000000000037e-01 -1.924530000000000129e-01 3.820338000000000012e+00 1.708377000000000034e+00 1.633390000000000120e-01 -3.674284999999999801e+00 -1.025956000000000090e+00 -8.544110000000000316e-01 2.353109999999999924e-01 -2.070859999999999923e-01 2.565680000000000183e-01 -1.930547999999999931e+00 1.298337000000000074e+00 -1.346230999999999955e+00
1.352614999999999901e+00 5.602850000000000330e-01 4.991619999999999946e-01 -5.037939999999999641e-01 1.101909999999999973e-01 2.476210000000000078e-01 -6.619720000000000049e-01 -2.746471999999999802e+00 -1.672976000000000019e+00 -2.499079999999999913e-01 1.541892999999999958e+00 1.134382000000000001e+00 1.323423999999999934e+00 1.288634999999999975e+00 3.383079999999999976e-01 -3.226450000000000151e-01 -6.393990000000000506e-01 4.139000000000000318e-02 -4.421800000000000175e-01 -1.420236000000000054e+00 -9.931029999999999580e-01 9.861360000000000126e-01 -4.270160000000000067e-01 -1.199827999999999895e+00 8.771039999999999948e-01 -3.176185999999999954e+00 6.864620000000000166e-01 1.512685999999999975e+00 5.198939999999999673e-01 -4.747520000000000073e-01 -1.850890000000000035e-01 -2.468430000000000069e-01 -8.448569999999999691e-01 -6.168850000000000167e-01 1.015157000000000087e+00 6.363539999999999752e-01 4.801500000000000212e-02 3.919630000000000059e-01 9.026950000000000252e-01 -2.379037999999999986e+00 2.821982000000000212e+00 8.864009999999999945e-01 2.854000000000000200e-03 3.922220000000000151e-01 -4.929970000000000185e-01 -7.413229999999999542e-01 1.392999999999999967e-02 3.057369999999999810e-01
6.850380000000000358e-01 1.568769999999999887e-01 3.717119999999999869e-01 3.879940000000000055e-01 2.790400000000000102e-01 -5.590180000000000149e-01 -2.199060999999999932e+00 1.995527000000000051e+00 1.218752999999999975e+00 -1.442957000000000045e+00 -3.262749999999999817e-01 -8.997829999999999995e-01 -4.013149999999999773e-01 1.494999999999999940e-01 7.228600000000000303e-02 -5.910560000000000258e-01 -4.265939999999999732e-01 6.806100000000000483e-01 4.948291000000000217e+00 3.657861000000000029e+00 1.755298999999999943e+00 8.966060000000000141e-01 -2.466775999999999858e+00 -2.869340000000000224e-01 -6.696680000000000410e-01 1.018796999999999953e+00 -5.616820000000000146e-01 2.047180000000000111e-01 7.774799999999999767e-02 6.733780000000000321e-01 -1.070611999999999897e+00 -5.809239999999999959e-01 -4.479899999999999993e-01 -3.636900000000000133e-01 1.656960000000000099e-01 -1.175480999999999998e+00 7.681299999999999795e-01 -3.795879999999999810e-01 -6.079120000000000079e-01 5.202799999999999647e-01 7.672619999999999996e-01 6.309190000000000076e-01 -2.639956999999999887e+00 -4.360769999999999591e+00 -7.721689999999999943e-01 9.672579999999999512e-01 2.726180000000000270e-01 -9.198800000000000032e-02
-5.970590000000000064e-01 -3.693500000000000255e-02 -1.674019999999999953e-01 1.025979999999999892e+00 -2.980131999999999781e+00 4.658349999999999991e-01 5.004900000000000321e-02 -6.263370000000000326e-01 7.064979999999999594e-01 -1.036281999999999925e+00 1.756798999999999999e+00 -8.402509999999999701e-01 5.655719999999999636e-01 5.029230000000000089e-01 5.271559999999999580e-01 2.551499999999999879e-01 3.889889999999999737e-01 7.674520000000000231e-01 -1.798819999999999864e-01 1.014698000000000100e+00 5.186760000000000259e-01 4.842960000000000043e-01 1.034400000000000076e-02 -6.273689999999999545e-01 -2.322299999999999920e-01 7.399699999999999334e-02 -2.912449999999999761e-01 2.390390000000000015e-01 3.549169999999999825e-01 -3.579939999999999789e-01 -8.535509999999999486e-01 -4.284890000000000088e-01 -1.057570000000000038e-01 -6.417249999999999899e-01 2.152669999999999861e-01 -3.964340000000000086e-01 -1.773740000000000039e-01 3.387680000000000136e-01 1.277330000000000132e-01 -3.724049999999999860e-01 -4.792600000000000193e-01 -6.580999999999999350e-02 4.800679999999999947e-01 5.998569999999999736e-01 4.052180000000000226e-01 9.903539999999999566e-01 -7.054059999999999775e-01 -6.663080000000000114e-01
-1.043862000000000068e+00 -1.203929000000000027e+00 2.449530000000000041e-01 -4.728430000000000133e-01 -1.830410000000000093e-01 6.172799999999999815e-02 1.700339999999999907e-01 -1.861890000000000045e+00 1.789226999999999901e+00 -1.902165000000000106e+00 2.063330999999999804e+00 -8.215120000000000200e-01 5.110310000000000130e-01 -1.707710999999999979e+00 8.155419999999999892e-01 1.384946000000000010e+00 -6.253100000000000325e-02 6.252450000000000507e-01 -6.053800000000000153e-02 4.542019999999999946e-01 -5.572089999999999543e-01 4.339450000000000252e-01 4.596399999999999791e-02 -6.162940000000000085e-01 3.519959999999999756e-01 5.093459999999999654e-01 -5.428939999999999877e-01 -1.751610000000000111e-01 7.900100000000000178e-02 4.044699999999999684e-02 1.368781999999999943e+00 -1.654452999999999951e+00 6.806569999999999565e-01 -1.504893999999999954e+00 -1.779679999999999929e+00 -1.238250000000000073e+00 7.428259999999999863e-01 -6.813919999999999977e-01 1.653969999999999885e-01 5.794080000000000341e-01 1.430048999999999904e+00 7.626779999999999671e-01 -4.302239999999999953e-01 3.647167000000000048e+00 -1.343863000000000030e+00 4.671800000000000258e-02 9.055670000000000108e-01 -6.585100000000000675e-02
2.125194000000000027e+00 -2.803007000000000026e+00 5.450580000000000425e-01 5.926109999999999989e-01 -1.064834999999999976e+00 9.204800000000000482e-02 -3.432879999999999820e-01 1.506693999999999978e+00 2.760657999999999834e+00 1.437230000000000008e+00 8.964999999999999358e-02 -5.905400000000000232e-02 1.454404000000000030e+00 -1.199106999999999923e+00 1.236923999999999912e+00 2.566620000000000013e-01 6.443360000000000198e-01 1.308219999999999938e-01 -7.494030000000000413e-01 1.774294000000000038e+00 -1.877434999999999965e+00 -8.907299999999999940e-02 -2.567699999999999844e-02 1.423000999999999960e+00 -2.264126999999999779e+00 3.934482000000000035e+00 -1.295798999999999923e+00 4.694299999999999862e-02 -1.347859999999999892e-01 2.767819999999999725e-01 -1.030855999999999995e+00 9.764899999999999969e-02 3.247349999999999959e-01 1.343150000000000066e+00 3.846809999999999952e-01 3.406440000000000023e-01 5.124999999999999695e-02 -2.216775000000000162e+00 -5.601190000000000335e-01 -1.916220999999999952e+00 3.953849999999999865e-01 2.860730000000000217e-01 -3.928710000000000258e-01 -1.334405999999999981e+00 -2.355992999999999782e+00 -5.216060000000000141e-01 -4.857800000000000312e-02 -1.268345000000000056e+00
7.738220000000000098e-01 -2.620770000000000044e-01 -1.749469999999999914e-01 -1.884398000000000017e+00 -4.215599999999999903e-02 -1.371640000000000081e-01 1.052318000000000087e+00 -1.646680000000000088e-01 -1.029010999999999898e+00 3.305630999999999986e+00 4.880555000000000199e+00 -5.355299999999999505e-01 7.007170000000000343e-01 7.674840000000000551e-01 1.079452000000000078e+00 2.099591000000000207e+00 3.244520000000000071e+00 1.890090999999999966e+00 -9.191749999999999643e-01 -4.975350000000000050e-01 -1.772820000000000062e+00 -2.128890999999999867e+00 -3.348705999999999960e+00 -2.370289999999999786e+00 -9.090139999999999887e-01 -1.323466999999999949e+00 1.247751000000000055e+00 -2.062150000000000094e-01 3.439169999999999727e-01 -2.353459999999999996e-01 -3.585728000000000026e+00 -6.003776000000000224e+00 9.829590000000000272e-01 -2.578940000000000121e-01 6.066989999999999883e-01 5.260550000000000503e-01 1.528559000000000001e+00 -4.812799999999999717e-02 1.303910000000000069e-01 -9.042109999999999870e-01 1.500145000000000062e+00 -9.229870000000000019e-01 -1.131215000000000082e+00 -4.787379999999999969e-01 5.724369999999999736e-01 2.466102999999999934e+00 8.259309999999999707e-01 7.489590000000000414e-01
-1.425256000000000078e+00 1.426438000000000095e+00 9.487219999999999542e-01 -5.113630000000000120e-01 2.064900000000000069e-02 8.463099999999999790e-02 4.502929999999999988e-01 -8.844670000000000032e-01 7.782790000000000541e-01 -7.948129999999999917e-01 2.023000999999999827e+00 -1.028318999999999983e+00 -1.901181999999999928e+00 7.613999999999999657e-01 -3.665001000000000175e+00 5.864040000000000363e-01 -2.508099999999999913e-02 5.841999999999999971e-03 4.991799999999999710e-02 -6.967119999999999980e-01 -6.160689999999999777e-01 8.776760000000000117e-01 -1.234984000000000082e+00 3.534789999999999877e-01 7.433990000000000320e-01 -1.251359999999999972e-01 1.153480000000000061e-01 1.805210999999999899e+00 1.153399999999999981e-01 7.896440000000000126e-01 -3.573259999999999770e-01 9.228899999999999604e-02 -6.320130000000000470e-01 -8.775600000000000067e-02 8.401039999999999619e-01 3.051269999999999816e-01 3.802880000000000149e-01 1.364710000000000090e-01 8.752500000000000557e-02 -6.987259999999999582e-01 -1.007122999999999990e+00 -3.702829999999999733e-01 1.166838000000000042e+00 -1.306237000000000092e+00 3.004831999999999947e+00 -2.836040000000000227e-01 -1.359509999999999885e-01 -1.617449999999999999e-01
-2.024164999999999992e+00 -1.426031000000000049e+00 -2.263370000000000104e-01 3.612239999999999895e-01 3.848095999999999961e+00 -1.382857999999999921e+00 -1.290789999999999993e-01 9.492549999999999599e-01 -5.900999999999999995e-03 7.840960000000000152e-01 -3.722239999999999993e-01 6.463790000000000369e-01 1.265713000000000088e+00 2.748537999999999926e+00 -6.082480000000000109e-01 9.680640000000000356e-01 8.016210000000000280e-01 -9.283989999999999743e-01 1.163286999999999960e+00 -2.914632999999999807e+00 5.893030000000000213e-01 1.349134000000000055e+00 4.779720000000000080e-01 2.483252999999999933e+00 1.357879999999999920e-01 -8.854379999999999473e-01 -6.138379999999999947e-01 -1.978868999999999989e+00 -2.368141000000000052e+00 1.422828999999999899e+00 -4.413940000000000086e-01 -1.503557000000000032e+00 -2.858617999999999881e+00 -8.039699999999999624e-01 1.706968000000000041e+00 7.944780000000000175e-01 3.691200000000000037e-02 -1.331019999999999981e-01 -1.237169999999999936e-01 -6.765120000000000022e-01 -6.343339999999999534e-01 5.958259999999999668e-01 4.034809999999999786e-01 -3.384030000000000094e-01 9.242190000000000127e-01 -4.137109999999999954e-01 4.341199999999999920e-02 -7.083709999999999729e-01
-1.524848999999999899e+00 3.594510000000000205e-01 -7.461699999999999999e-01 -3.357040000000000024e+00 5.068700000000000427e-01 6.492840000000000167e+00 -1.876500000000000112e-01 -7.273599999999999510e-02 -8.237139999999999462e-01 2.558486999999999956e+00 3.606651999999999969e+00 1.365820999999999952e+00 1.059028999999999998e+00 -9.426600000000000534e-01 7.788340000000000263e-01 3.488160000000000149e-01 -5.990870000000000362e-01 1.403712999999999989e+00 -6.287099999999999633e-02 -1.993689999999999907e-01 -5.339479999999999782e-01 -4.428360000000000074e-01 2.480590000000000017e-01 -2.804900000000000101e-02 -2.284593999999999792e+00 1.683399999999999896e-01 -1.492533000000000110e+00 -2.296610000000000040e-01 6.930159999999999654e-01 2.681350000000000122e-01 4.941799999999999665e-02 -1.286210000000000131e-01 -4.948099999999999721e-02 3.219688000000000105e+00 -3.548210999999999782e+00 -7.232135999999999676e+00 -1.216974999999999918e+00 1.807439000000000018e+00 -1.254349999999999909e-01 1.137858999999999954e+00 6.404090000000000060e-01 2.522880000000000122e-01 5.831210000000000004e-01 -1.192058999999999980e+00 3.961660000000000181e-01 3.500579999999999803e-01 -1.347493999999999970e+00 7.366899999999999837e-02