-4.880811852000000073e+01
-5.205036909999999750e+01
