3.851513000000000186e+00 0.000000000000000000e+00 0.000000000000000000e+00 0.000000000000000000e+00 3.851513000000000186e+00 0.000000000000000000e+00 0.000000000000000000e+00 0.000000000000000000e+00 1.855783600000000177e+01
3.560833000000000137e+00 0.000000000000000000e+00 0.000000000000000000e+00 0.000000000000000000e+00 3.560833000000000137e+00 0.000000000000000000e+00 0.000000000000000000e+00 0.000000000000000000e+00 1.468554699999999968e+01
