1.002340000000000009e+00 3.574600000000000000e-01 8.358940000000000481e+00 2.322880000000000056e+00 2.610329999999999817e+00 5.207010000000000360e+00 2.606510000000000105e+00 3.163400000000000101e-01 6.943329999999999558e+00 2.492729999999999890e+00 1.754490000000000105e+00 1.235770000000000035e+00 3.740580000000000016e+00 8.910099999999999687e-01 1.834979999999999833e+01 2.317800000000000138e-01 2.156270000000000131e+00 1.062710000000000043e+01 2.274099999999999788e+00 8.645699999999999497e-01 3.710210000000000008e+00 2.260299999999999976e+00 2.937269999999999825e+00 1.759590000000000032e+01 3.685389999999999944e+00 3.495820000000000149e+00 1.593620000000000037e+00 2.106300000000000061e+00 2.799009999999999998e+00 1.056530000000000058e+01 6.517000000000000570e-02 2.994250000000000078e+00 3.837040000000000006e+00 3.235700000000000243e-01 1.934830000000000050e+00 6.883399999999999963e+00
1.116789999999999949e+00 2.608999999999999861e-02 1.354420000000000002e+01 2.040010000000000101e+00 4.156599999999999739e-01 4.891230000000000189e+00 1.012780000000000014e+00 1.812040000000000095e+00 1.113399999999999945e+00 2.205869999999999997e+00 2.074310000000000098e+00 3.131720000000000059e+00 2.961959999999999926e+00 3.660800000000000165e-01 9.800100000000000477e-01 3.264269999999999783e+00 4.778000000000000025e-01 9.923930000000000362e+00 1.527400000000000091e+00 2.058910000000000018e+00 8.566919999999999646e+00 2.726770000000000138e+00 1.212990000000000013e+00 1.336989999999999945e+01 4.165599999999999858e-01 3.865999999999999992e-01 7.266090000000000160e+00 5.752199999999999536e-01 2.262399999999999967e+00 5.396630000000000038e+00 5.062200000000000033e-01 4.647299999999999764e-01 3.378480000000000150e+00 3.013529999999999820e+00 2.688109999999999999e+00 1.123869999999999969e+01
