-1.509134999999999893e+00 -9.326689999999999703e-01 2.434687999999999963e+00 -1.927710999999999952e+00 -2.739190000000000236e-01 1.707098999999999922e+00 8.219560000000000199e-01 -3.991239999999999788e-01 -1.171132999999999980e+00 -3.291278000000000148e+00 -4.567959999999999798e-01 1.680582999999999938e+00 2.079692000000000096e+00 1.264260000000000106e-01 -3.178341999999999778e+00 -1.601784000000000097e+00 -2.758443000000000200e+00 -3.555409999999999959e-01 -3.538600000000000079e-01 -3.612420000000000075e-01 -7.907229999999999537e-01 -1.558779999999999888e-01 -4.625200000000000145e-02 8.794149999999999467e-01 1.221133000000000024e+00 7.272779999999999800e-01 8.989800000000000013e-01 1.618438999999999961e+00 2.861256000000000022e+00 -7.288639999999999564e-01 2.336342000000000141e+00 -3.704669999999999908e-01 -5.850649999999999462e-01 7.620850000000000124e-01 1.883952999999999989e+00 -7.910970000000000502e-01
-2.752664000000000222e+00 -3.420637000000000150e+00 5.626229999999999842e-01 2.437797000000000214e+00 1.545999999999999978e-02 2.133697000000000177e+00 8.328020000000000422e-01 1.590870000000000006e+00 -6.850300000000000278e-01 9.654390000000000471e-01 1.019263999999999948e+00 7.029999999999999791e-03 -1.396009999999999973e+00 -1.860675999999999997e+00 1.735829999999999873e-01 1.069363000000000063e+00 5.198542999999999914e+00 -5.438203999999999816e+00 3.136920000000000264e-01 4.028289999999999926e-01 5.748769999999999714e-01 2.758170999999999928e+00 3.386788000000000132e+00 -5.747609999999999664e-01 -3.869870000000000254e-01 -1.161240000000000050e-01 -2.179200000000000026e-01 -9.896500000000000297e-01 -5.044170000000000043e-01 3.148800000000000210e-02 -1.796869999999999967e+00 -6.614520000000000399e-01 -1.710429999999999895e+00 -1.055083999999999911e+00 -5.050447000000000131e+00 5.143049000000000426e+00
