9.668535230744858211e+00 2.912383837597912084e+00 -6.370252119665170909e+00 2.912383837597912084e+00 -1.818703591827478316e+00 -2.627370062453042165e-01 -6.370252119665170909e+00 -2.627370062453042165e-01 1.909375969120110428e+00
1.939463073529865689e+00 7.514123841277864813e+00 1.767651900871748838e+00 7.514123841277864813e+00 2.386885484214993802e+00 -8.973711076006193110e+00 1.767651900871748838e+00 -8.973711076006193110e+00 -4.396301710528371487e+00
