-1.625000000000000056e-02 3.397050000000000125e+00 2.203689999999999927e+00 3.373180000000000067e+00 1.682870000000000088e+00 8.644259999999999167e+00 1.233680000000000110e+00 1.622819999999999929e+00 8.595500000000000362e-01 3.894050000000000011e+00 1.741230000000000055e+00 3.503260000000000041e+00 2.148029999999999884e+00 3.372170000000000112e+00 7.335130000000000372e+00 4.625799999999999912e+00 3.392929999999999779e+00 5.216319999999999624e+00 2.459929999999999950e+00 1.231899999999999940e-01 2.260209999999999830e+00 7.693699999999999983e-01 1.646700000000000053e+00 8.755940000000000722e+00 -1.872900000000000120e-01 3.293719999999999981e+00 7.570339999999999847e+00 3.304100000000000037e+00 1.794699999999999962e+00 6.355330000000000368e+00 4.477710000000000079e+00 6.721000000000000585e-02 3.150000000000000022e-03 2.459979999999999833e+00 6.528000000000000469e-02 4.885930000000000106e+00 1.343779999999999974e+00 1.824429999999999996e+00 3.610189999999999788e+00 1.841199999999999948e+00 4.825000000000000122e-02 9.934250000000000469e+00 3.446299999999999919e+00 1.554959999999999898e+00 8.090199999999999614e-01 9.247100000000000319e-01 1.694409999999999972e+00 6.349260000000000126e+00
4.770340000000000025e+00 1.663829999999999920e+00 7.152879999999999683e+00 1.048980000000000024e+00 2.855099999999999860e-01 1.733340000000000103e+00 1.223829999999999973e+00 3.659419999999999895e+00 7.673560000000000159e+00 4.770199999999999996e-01 3.505349999999999966e+00 5.180790000000000006e+00 2.024090000000000167e+00 1.793330000000000091e+00 6.508429999999999715e+00 3.607629999999999892e+00 2.195749999999999869e+00 3.778770000000000184e+00 3.502580000000000027e+00 5.362900000000000444e-01 1.652080000000000126e+01 8.162199999999999456e-01 3.630850000000000133e+00 1.546700000000000053e+01 1.169540000000000024e+00 1.798459999999999948e+00 3.529819999999999958e+00 4.831209999999999560e+00 1.262680000000000025e+00 1.011529999999999951e+01 4.414649999999999963e+00 2.425199999999999800e+00 1.665579999999999927e+01 2.601269999999999971e+00 1.507160000000000055e+00 9.084910000000000707e+00 3.392339999999999911e+00 3.651569999999999983e+00 5.909889999999999866e+00 2.189470000000000027e+00 2.013590000000000213e+00 5.702000000000000124e-02 3.821009999999999796e+00 3.390080000000000204e+00 8.410619999999999763e+00 3.332209999999999894e+00 3.429549999999999876e+00 1.918029999999999902e+00
4.518200000000000216e+00 3.362779999999999880e+00 2.308289999999999953e+00 3.484210000000000029e+00 1.587720000000000020e+00 8.649440000000000239e+00 1.209810000000000052e+00 1.837040000000000006e+00 7.399200000000000221e-01 3.145630000000000148e+00 1.568000000000000060e+00 3.545459999999999834e+00 2.468389999999999862e+00 3.899999999999999994e-02 7.661640000000000228e+00 -1.675399999999999945e-01 3.396710000000000118e+00 4.818590000000000373e+00 2.109630000000000116e+00 3.390369999999999884e+00 2.067670000000000119e+00 1.214550000000000018e+00 1.913790000000000102e+00 9.007949999999999235e+00 -7.624999999999999833e-02 4.415999999999999787e-02 7.535160000000000302e+00 3.581069999999999975e+00 1.814179999999999904e+00 6.297659999999999592e+00 4.439119999999999955e+00 3.279549999999999965e+00 9.935280000000000555e+00 2.088290000000000202e+00 3.373320000000000096e+00 5.045630000000000059e+00 7.780200000000000449e-01 1.648670000000000080e+00 3.583380000000000010e+00 2.267970000000000041e+00 2.695400000000000018e-01 9.984759999999999636e+00 3.507480000000000153e+00 1.709610000000000074e+00 1.017419999999999991e+00 1.191769999999999996e+00 1.503630000000000022e+00 6.317590000000000039e+00
1.780680000000000041e+00 1.585050000000000070e+00 5.254699999999999926e-01 3.813200000000000145e+00 3.347370000000000179e+00 7.838729999999999976e+00 4.451290000000000191e+00 3.463999999999999968e+00 2.663190000000000168e+00 4.150079999999999991e+00 1.564410000000000078e+00 9.664099999999999913e-01 1.189700000000000063e-01 1.569150000000000045e+00 6.882349999999999746e+00 4.619200000000000195e+00 3.483800000000000008e+00 5.260259999999999714e+00 4.957889999999999908e+00 1.426449999999999996e+00 9.682980000000000587e+00 1.706700000000000106e+00 1.756950000000000012e+00 9.439890000000000114e+00 1.028799999999999937e+00 3.437120000000000175e+00 7.809999999999999609e+00 1.052099999999999980e-01 3.658279999999999976e+00 8.687999999999999889e-02 2.397390000000000132e+00 1.789860000000000007e+00 6.344289999999999985e+00 3.371570000000000178e+00 1.773309999999999942e+00 3.879999999999999893e+00 2.891249999999999876e+00 3.496770000000000156e+00 1.914899999999999936e-01 1.935219999999999940e+00 3.475530000000000008e+00 2.258480000000000043e+00 6.486699999999999688e-01 1.711330000000000018e+00 3.846099999999999852e+00 2.221890000000000143e+00 3.535229999999999873e+00 5.149420000000000108e+00
4.305130000000000123e+00 2.836759999999999948e+00 1.760620000000000118e+01 7.496699999999999475e-01 2.770049999999999901e+00 7.410590000000000011e+00 4.319209999999999994e+00 8.538499999999999979e-01 6.401299999999999990e+00 2.347599999999999909e+00 1.017370000000000108e+00 7.522990000000000066e+00 2.432020000000000071e+00 2.132909999999999862e+00 1.565819999999999990e+00 2.823840000000000128e+00 3.867300000000000182e-01 1.065489999999999959e+01 5.127999999999999919e-02 2.002390000000000114e+00 1.737740000000000062e+00 1.785230000000000095e+00 6.265399999999999858e-01 1.716900000000000048e+01 4.394860000000000433e+00 6.102400000000000047e-01 3.552130000000000010e+00 5.751399999999999846e-01 2.413549999999999862e+00 4.700029999999999930e+00 3.488570000000000171e+00 6.742299999999999960e-01 1.370300000000000129e-01 5.991100000000000314e-01 1.824800000000000033e-01 3.153699999999999837e-01 2.773200000000000109e+00 2.565360000000000085e+00 5.989099999999999646e+00 4.692619999999999791e+00 1.315360000000000085e+00 8.920909999999999229e+00 1.945829999999999949e+00 3.035979999999999901e+00 9.206509999999999749e+00 2.193270000000000053e+00 7.843900000000000317e-01 4.378840000000000288e+00
3.257550000000000168e+00 1.631429999999999936e+00 4.867199999999999860e-01 4.603460000000000107e+00 3.260780000000000012e+00 1.441239999999999988e+01 1.146539999999999893e+00 2.147959999999999869e+00 4.710969999999999658e+00 2.733029999999999848e+00 1.803460000000000063e+00 9.039410000000000167e+00 4.625499999999999723e+00 3.373700000000000032e-01 8.462479999999999336e+00 2.839400000000000257e-01 1.856379999999999919e+00 6.859609999999999985e+00 2.751879999999999882e+00 2.192550000000000221e+00 6.361369999999999969e+00 5.100030000000000285e+00 3.687809999999999810e+00 5.641359999999999708e+00 4.347699999999999898e-01 -2.490000000000000026e-03 2.659619999999999873e+00 5.544200000000000239e-01 1.806000000000000050e+00 9.778660000000000352e+00 1.392100000000000004e-01 1.737479999999999913e+00 5.357399999999999940e-01 1.748159999999999936e+00 2.648999999999999966e-02 7.949099999999999611e+00 1.981249999999999956e+00 3.189939999999999998e+00 3.461600000000000232e-01 4.323859999999999815e+00 1.500590000000000090e+00 4.311720000000000219e+00 2.326700000000000212e+00 2.938999999999999946e-01 4.805200000000000138e+00 3.272279999999999855e+00 3.303650000000000198e+00 2.201700000000000212e+00
7.165000000000000535e-02 3.395509999999999806e+00 2.528459999999999930e+00 3.452920000000000211e+00 1.592300000000000049e+00 8.778560000000000585e+00 1.062519999999999909e+00 1.735989999999999922e+00 1.164250000000000007e+00 3.504109999999999836e+00 1.533330000000000082e+00 3.594289999999999985e+00 2.392689999999999984e+00 2.041100000000000136e-01 7.149040000000000283e+00 4.305349999999999788e+00 6.543999999999999817e-02 5.044319999999999915e+00 2.446810000000000151e+00 1.562600000000000100e-01 2.468440000000000190e+00 1.095849999999999991e+00 1.711470000000000047e+00 8.697409999999999641e+00 -7.971999999999999920e-02 3.432999999999999940e-02 7.272170000000000023e+00 3.272619999999999862e+00 1.664779999999999927e+00 6.222459999999999880e+00 4.392610000000000348e+00 3.375789999999999846e+00 9.947400000000000020e+00 2.147699999999999942e+00 3.139619999999999855e+00 4.800749999999999851e+00 1.137620000000000076e+00 1.563220000000000054e+00 3.584020000000000206e+00 2.142220000000000013e+00 1.598900000000000043e-01 1.010330000000000084e+01 3.664320000000000022e+00 1.802699999999999969e+00 1.245409999999999906e+00 8.156700000000000061e-01 1.781500000000000083e+00 5.915549999999999642e+00
4.610529999999999795e+00 3.248730000000000118e+00 8.150270000000000792e+00 1.338430000000000009e+00 1.982590000000000074e+00 3.343329999999999913e+00 2.650580000000000158e+00 5.222999999999999865e-02 4.850749999999999673e+00 1.438979999999999926e+00 1.914690000000000003e+00 6.558699999999999530e-01 1.089769999999999905e+00 1.636200000000000099e+00 9.579689999999999372e+00 8.716000000000000136e-02 1.794900000000000106e-01 1.888849999999999918e+00 2.030510000000000037e+00 3.432129999999999903e+00 8.224510000000000431e+00 2.280130000000000212e+00 3.360899999999999999e+00 1.072739999999999938e+01 3.758449999999999847e+00 1.906309999999999949e+00 9.396990000000000620e+00 3.814369999999999816e+00 1.804999999999999938e+00 4.415499999999999980e-01 3.627510000000000012e+00 1.611410000000000009e+00 6.903419999999999668e+00 2.521490000000000009e+00 1.755400000000000016e-01 1.955330000000000013e+00 4.666859999999999786e+00 3.215479999999999894e+00 1.059650000000000070e+01 4.734329999999999927e+00 3.253769999999999829e+00 5.456059999999999910e+00 1.020270000000000010e+00 1.545749999999999957e+00 6.664719999999999978e+00 3.687110000000000110e+00 1.879429999999999934e+00 3.475929999999999964e+00
4.116760000000000197e+00 1.719559999999999977e+00 1.862370000000000081e+00 3.535400000000000209e-01 1.172169999999999934e+00 1.884440000000000026e+01 1.353990000000000027e+00 1.884640000000000093e+00 8.247059999999999391e+00 3.134700000000000042e+00 1.782529999999999948e+00 6.564499999999999780e+00 2.409710000000000019e+00 2.686600000000000099e-01 4.047600000000000087e-01 1.537649999999999961e+00 3.278160000000000185e+00 5.915000000000000036e+00 2.760500000000000176e-01 3.548059999999999992e+00 3.947049999999999947e+00 2.921530000000000182e+00 -1.823400000000000021e-01 8.701840000000000686e+00 3.873800000000000132e+00 3.524890000000000079e+00 4.911389999999999922e+00 2.159969999999999946e+00 1.660930000000000017e+00 4.475279999999999703e+00 1.096149999999999958e+00 1.961840000000000028e+00 2.069449999999999790e+00 5.831800000000000317e-01 1.162799999999999945e-01 8.804280000000000328e+00 4.572449999999999903e+00 1.958290000000000086e+00 8.772339999999999804e+00 2.928080000000000016e+00 3.531120000000000037e+00 2.855129999999999946e+00 5.156909999999999883e+00 1.893019999999999925e+00 5.537679999999999936e+00 5.074440000000000062e+00 3.690970000000000084e+00 9.248899999999999899e-01
5.106270000000000309e+00 3.302119999999999944e+00 1.897480000000000055e+00 2.768670000000000186e+00 6.936299999999999688e-01 8.474489999999999412e+00 1.301660000000000039e+00 1.387590000000000101e+00 3.071379999999999999e+00 4.056770000000000209e+00 1.499060000000000059e+00 1.010960000000000036e+01 5.260699999999999932e+00 3.590759999999999952e+00 1.148450000000000060e+01 3.719739999999999824e+00 1.653359999999999941e+00 1.250309999999999988e+01 1.589530000000000109e+00 2.456150000000000055e+00 7.272059999999999746e+00 4.389370000000000438e+00 2.223790000000000155e+00 7.503659999999999997e+00 3.373930000000000096e+00 1.166369999999999907e+00 5.467349999999999710e+00 6.182999999999999607e-01 3.883400000000000185e-01 8.548009999999999664e+00 9.265999999999999792e-01 1.743030000000000079e+00 4.304100000000000148e-01 6.358599999999999808e-01 1.874599999999999878e-01 5.405820000000000292e+00 2.298569999999999780e+00 3.189200000000000035e+00 1.902169999999999916e+00 2.728950000000000209e+00 3.694929999999999826e+00 1.168149999999999977e+01 3.806700000000000195e+00 1.261980000000000102e+00 3.571239999999999970e+00 1.755600000000000049e+00 1.955100000000000060e+00 1.004379999999999917e+01
4.765920000000000378e+00 3.202240000000000197e+00 1.759540000000000104e+00 1.573479999999999990e+00 2.662929999999999797e+00 8.400700000000000500e+00 4.841370000000000395e+00 2.978590000000000071e+00 5.133720000000000283e+00 8.954999999999999627e-01 1.548419999999999908e+00 3.208779999999999966e+00 2.433580000000000076e+00 1.729430000000000023e+00 1.543629999999999924e+01 4.734239999999999782e+00 2.613970000000000127e+00 1.623410000000000153e+01 1.151739999999999986e+00 9.968500000000000139e-01 6.106340000000000323e+00 3.195240000000000080e+00 1.934900000000000064e+00 6.914760000000000240e+00 2.282540000000000013e+00 2.994829999999999881e+00 4.750239999999999796e+00 4.289950000000000152e+00 9.650000000000000591e-03 7.548989999999999867e+00 3.592189999999999994e+00 1.195179999999999909e+00 3.974199999999999955e-01 3.694799999999999862e+00 1.545760000000000023e+00 3.680750000000000188e+00 4.342109999999999914e+00 1.684660000000000046e+00 9.314329999999999998e+00 1.202039999999999997e+00 1.433699999999999974e+00 6.299700000000000299e-01 2.188489999999999824e+00 3.454099999999999948e+00 2.294570000000000221e+00 4.496360000000000134e+00 9.053700000000000081e-01 1.150880000000000081e+01
4.060570000000000235e+00 1.875839999999999952e+00 4.066899999999999959e-01 2.947709999999999830e+00 3.852599999999999913e-01 2.043260000000000076e+00 4.175150000000000361e+00 2.252180000000000071e+00 2.775529999999999831e+00 4.789100000000000024e-01 1.733500000000000041e-01 1.176169999999999938e+01 1.931990000000000096e+00 2.178389999999999826e+00 3.339080000000000048e+00 6.497600000000000042e-01 4.156500000000000195e-01 4.378529999999999589e+00 2.538980000000000015e+00 1.631930000000000103e+00 1.285769999999999946e+01 1.359439999999999982e+00 1.439610000000000056e+00 4.121799999999999908e-01 1.776489999999999903e+00 2.171320000000000139e+00 6.180780000000000385e+00 3.561549999999999994e+00 7.042300000000000226e-01 4.763889999999999958e+00 -6.973000000000000032e-02 2.047340000000000160e+00 1.286320000000000086e+01 3.332450000000000134e+00 2.377100000000000046e-01 7.607319999999999638e+00 2.980010000000000048e+00 3.521409999999999929e+00 1.429069999999999929e+01 3.378800000000000137e-01 1.383500000000000008e-01 1.864069999999999894e+00 4.489150000000000418e+00 2.001370000000000093e+00 6.524540000000000006e+00 4.867890000000000050e+00 5.733500000000000263e-01 8.887809999999999988e+00
4.971680000000000099e+00 1.560380000000000100e+00 7.084959999999999702e+00 9.646500000000000075e-01 1.552800000000000014e-01 1.734830000000000094e+00 1.247239999999999904e+00 4.549999999999999878e-02 7.684829999999999828e+00 5.012299999999999534e-01 3.504340000000000011e+00 5.119570000000000398e+00 2.122360000000000024e+00 1.915839999999999987e+00 6.483649999999999913e+00 3.640699999999999825e+00 2.107709999999999972e+00 3.700200000000000156e+00 3.446660000000000057e+00 5.773899999999999588e-01 1.663739999999999952e+01 8.676399999999999668e-01 3.669059999999999988e+00 1.546139999999999937e+01 1.241640000000000077e+00 1.951270000000000060e+00 3.407350000000000101e+00 4.840720000000000134e+00 1.256690000000000085e+00 1.027999999999999936e+01 4.365029999999999966e+00 2.373450000000000060e+00 1.670949999999999847e+01 2.629030000000000200e+00 1.469510000000000094e+00 9.080330000000000013e+00 3.283710000000000129e+00 3.651219999999999910e+00 5.824699999999999989e+00 1.970480000000000009e+00 1.960919999999999996e+00 1.144099999999999978e-01 3.956090000000000106e+00 3.387360000000000149e+00 8.455289999999999750e+00 3.208750000000000213e+00 3.510009999999999852e+00 1.918330000000000091e+00
3.381159999999999943e+00 1.720120000000000093e+00 2.287529999999999841e+00 1.477579999999999893e+00 2.024950000000000028e+00 1.122889999999999944e+01 3.505329999999999835e+00 2.803269999999999929e+00 1.446279999999999966e+01 2.937209999999999877e+00 5.949900000000000189e-01 9.810930000000000817e+00 9.461399999999999810e-01 5.062299999999999578e-01 6.269949999999999690e+00 1.951470000000000038e+00 1.829679999999999973e+00 5.323129999999999917e+00 2.037669999999999870e+00 6.615499999999999714e-01 2.764699999999999935e-01 6.317099999999999937e-01 4.524599999999999733e-01 9.952130000000000365e+00 4.895270000000000010e+00 5.623200000000000420e-01 1.259549999999999947e+01 4.861930000000000085e+00 2.970000000000000070e-02 3.698500000000000121e-01 2.553869999999999862e+00 5.553000000000000158e-01 1.271429999999999971e+01 9.597200000000000175e-01 2.128709999999999880e+00 1.384740000000000038e+01 3.983699999999999797e+00 2.394390000000000018e+00 1.105000000000000071e+01 4.307280000000000442e+00 2.005830000000000002e+00 6.806770000000000209e+00 2.242399999999999949e+00 2.475769999999999804e+00 8.039759999999999351e+00 1.656279999999999974e+00 1.482999999999999874e-01 3.523629999999999818e+00
2.538699999999999957e+00 -1.228599999999999970e-01 1.140799999999999947e+01 4.396209999999999951e+00 9.579000000000000015e-02 5.151849999999999596e+00 1.206139999999999990e+00 1.596770000000000023e+00 3.043569999999999887e+00 3.922200000000000131e+00 1.875389999999999890e+00 7.031909999999999883e+00 2.883070000000000022e+00 1.184499999999999997e-01 1.690970000000000084e+00 1.260790000000000077e+00 2.047460000000000058e+00 4.963500000000000134e-01 3.943160000000000220e+00 1.650760000000000005e+00 2.285800000000000054e-01 1.849439999999999973e+00 1.506950000000000012e+00 1.020100000000000051e+01 6.487800000000000233e-01 -3.123000000000000081e-02 8.299749999999999517e+00 1.323930000000000051e+00 1.276550000000000074e+00 6.599310000000000009e+00 4.798320000000000363e+00 -1.309500000000000108e-01 1.091029999999999944e+01 4.103019999999999889e+00 1.459670000000000023e+00 9.504129999999999967e+00 2.977079999999999949e+00 3.323650000000000215e+00 8.748599999999999710e+00 3.881369999999999987e+00 1.908930000000000016e+00 3.388440000000000119e+00 1.955950000000000077e+00 3.282859999999999889e+00 4.889590000000000103e+00 3.665800000000000169e-01 3.280590000000000117e+00 1.543789999999999996e+00
3.169290000000000163e+00 1.531649999999999956e+00 2.119190000000000129e+00 2.499690000000000190e+00 5.495700000000000029e-01 7.694650000000000212e+00 3.239780000000000104e+00 1.073899999999999993e-01 1.249150000000000027e+01 4.613970000000000127e+00 2.369100000000000095e-01 6.961319999999999730e+00 4.235970000000000013e+00 1.893319999999999892e+00 8.457019999999999982e+00 -7.041000000000000036e-02 2.330599999999999894e-01 1.014879999999999960e+01 5.740199999999999747e-01 2.387270000000000003e+00 6.128910000000000302e+00 1.114079999999999959e+00 3.073290000000000077e+00 3.147100000000000009e+00 2.379999999999999893e-01 1.481810000000000072e+00 1.734220000000000095e+00 1.239449999999999941e+00 2.369990000000000041e+00 8.662929999999999353e+00 4.677220000000000155e+00 9.372300000000000075e-01 3.823900000000000077e+00 4.116640000000000299e+00 2.689750000000000085e+00 5.140900000000000469e-01 3.601609999999999978e+00 2.292730000000000157e+00 5.645419999999999661e+00 4.503989999999999938e+00 2.126389999999999780e+00 1.057879999999999932e+01 2.632629999999999804e+00 1.299599999999999922e-01 1.062139999999999951e+01 1.978509999999999991e+00 5.307199999999999696e-01 4.654700000000000060e+00
4.680950000000000166e+00 2.856300000000000061e+00 1.969540000000000068e+00 1.560980000000000034e+00 2.869450000000000056e+00 8.409570000000000434e+00 4.867230000000000167e+00 2.817250000000000032e+00 5.351130000000000386e+00 1.163920000000000066e+00 1.500950000000000006e+00 3.564270000000000049e+00 2.581170000000000186e+00 1.813989999999999991e+00 1.531380000000000052e+01 4.631219999999999892e+00 2.738480000000000025e+00 1.646150000000000091e+01 1.062419999999999920e+00 1.059239999999999959e+00 6.026769999999999960e+00 3.081659999999999844e+00 1.832619999999999916e+00 6.676210000000000200e+00 2.315230000000000121e+00 3.376700000000000035e+00 4.444539999999999935e+00 4.085580000000000211e+00 6.511000000000000121e-02 7.723340000000000316e+00 3.756209999999999827e+00 1.111730000000000107e+00 4.204999999999999849e-01 3.757280000000000175e+00 1.444909999999999917e+00 3.557100000000000151e+00 4.153819999999999624e+00 1.949109999999999898e+00 9.510799999999999699e+00 1.185100000000000042e+00 1.383829999999999893e+00 5.367899999999999894e-01 2.411789999999999878e+00 3.500890000000000057e+00 1.953740000000000032e+00 4.384990000000000165e+00 5.699699999999999767e-01 1.139980000000000082e+01
3.278800000000000048e-01 2.573500000000000232e-01 8.032560000000000144e+00 1.310000000000000053e+00 2.356739999999999835e+00 9.116170000000000329e+00 5.103799999999999670e+00 1.859000000000000097e-01 3.206310000000000215e+00 3.889200000000000212e+00 1.982450000000000045e+00 4.250140000000000029e+00 2.864669999999999828e+00 2.022200000000000109e-01 5.122469999999999857e+00 9.750100000000000433e-01 1.639210000000000056e+00 1.238550000000000040e+00 3.891049999999999898e+00 2.336180000000000145e+00 9.270519999999999428e+00 2.956599999999999784e-01 5.827700000000000102e-01 5.454989999999999561e+00 3.357250000000000068e+00 2.116070000000000118e+00 1.350530000000000008e+00 1.615499999999999936e+00 5.075699999999999656e-01 1.766920000000000002e+01 4.244040000000000035e+00 2.474149999999999849e+00 6.867370000000000196e+00 1.483230000000000048e+00 2.530240000000000045e+00 6.638150000000000439e+00 3.092779999999999863e+00 6.170499999999999874e-01 7.704780000000000406e+00 1.555660000000000043e+00 2.075130000000000141e+00 3.897899999999999920e+00 2.273989999999999956e+00 2.444900000000000129e-01 2.499670000000000059e+00 5.129830000000000112e+00 3.293979999999999908e+00 1.839659999999999940e+01
4.171719999999999651e+00 1.958199999999999941e-01 1.384179999999999966e+00 2.932729999999999837e+00 3.051219999999999821e+00 4.200260000000000105e+00 4.507880000000000109e+00 2.010609999999999786e+00 2.623240000000000016e+00 1.306899999999999951e+00 2.445650000000000102e+00 1.301370000000000005e+01 8.782200000000000006e-01 6.632000000000000117e-01 1.143009999999999948e+01 1.297509999999999941e+00 2.318350000000000133e+00 5.658439999999999692e+00 3.090850000000000097e+00 -1.528299999999999936e-01 1.192839999999999989e+01 -9.624000000000000610e-02 3.602129999999999832e+00 4.059400000000000119e+00 3.376100000000000212e-01 -1.610300000000000065e-01 7.028150000000000119e+00 1.384649999999999936e+00 1.957659999999999956e+00 8.032819999999999183e+00 6.219999999999999973e-01 2.081150000000000055e+00 1.014250000000000007e+01 2.495769999999999822e+00 2.084999999999999909e-01 9.587469999999999715e+00 3.492090000000000138e+00 3.173560000000000159e+00 7.473150000000000404e+00 3.053780000000000161e+00 1.635520000000000085e+00 1.796500000000000041e-01 1.597720000000000029e+00 3.333650000000000002e+00 1.556189999999999962e+00 4.220880000000000187e+00 1.334740000000000038e+00 5.177959999999999674e+00
1.163650000000000073e+00 1.895610000000000017e+00 1.582079999999999931e+00 3.876339999999999897e+00 1.851050000000000084e+00 6.866489999999999760e+00 1.553499999999999881e-01 3.535530000000000062e+00 2.483560000000000212e+00 3.751869999999999816e+00 2.346900000000000208e+00 9.118800000000000239e-01 2.315119999999999845e+00 1.727499999999999869e-01 7.417270000000000252e+00 5.019149999999999778e+00 2.065400000000000014e-01 5.660779999999999923e+00 7.895299999999999541e-01 7.379299999999999748e-01 9.673249999999999460e+00 3.279959999999999987e+00 5.929200000000000026e-01 9.557050000000000267e+00 -3.475999999999999923e-02 3.172460000000000058e+00 8.423289999999999722e+00 4.893670000000000186e+00 7.510299999999999754e-01 1.708129999999999882e+01 1.022559999999999913e+00 2.146739999999999871e+00 6.429540000000000255e+00 3.919160000000000199e+00 1.581990000000000007e+00 3.810999999999999943e+00 2.701130000000000031e+00 1.811919999999999975e+00 1.611809999999999832e+01 3.065970000000000084e+00 5.285600000000000298e-01 2.287830000000000030e+00 1.298839999999999995e+00 1.823839999999999906e+00 4.116710000000000313e+00 2.897839999999999971e+00 3.415059999999999985e+00 5.163949999999999818e+00
4.096219999999999750e+00 1.417159999999999975e+00 1.971479999999999899e+00 2.937769999999999992e+00 3.514699999999999935e+00 4.981379999999999697e+00 2.568150000000000155e+00 3.053999999999999826e+00 2.259399999999999853e+00 2.581269999999999953e+00 -2.515999999999999834e-02 1.402979999999999983e+01 4.560880000000000045e+00 8.233000000000000040e-02 1.389029999999999987e+01 1.328230000000000022e+00 1.443419999999999925e+00 4.037440000000000140e+00 5.971400000000000041e-01 3.168159999999999865e+00 1.021359999999999957e+01 4.297419999999999796e+00 1.530250000000000110e+00 4.233649999999999913e+00 2.529899999999999927e-01 1.769000000000000086e-02 5.592550000000000132e+00 1.550839999999999996e+00 1.858389999999999986e+00 6.331949999999999967e+00 1.848279999999999923e+00 6.983700000000000463e-01 8.412689999999999557e+00 4.010309999999999597e+00 2.153770000000000184e+00 8.887629999999999697e+00 -6.314999999999999780e-02 2.984980000000000189e+00 7.686160000000000103e+00 1.211249999999999938e+00 1.189829999999999943e+00 1.608840000000000048e+00 5.262690000000000090e+00 3.303679999999999950e+00 2.617239999999999789e+00 3.809349999999999792e+00 1.306340000000000057e+00 6.721330000000000027e+00
2.689369999999999816e+00 2.359199999999999908e-01 5.129089999999999705e+00 4.107709999999999972e+00 2.132499999999999840e+00 4.264499999999999957e+00 1.719719999999999915e+00 1.776650000000000063e+00 9.538799999999999502e-01 3.102629999999999999e+00 4.004080000000000084e+00 1.350000000000000000e+01 3.364860000000000184e+00 2.337540000000000173e+00 6.831669999999999909e+00 2.796000000000000152e-01 7.516000000000000458e-02 1.762489999999999890e+00 2.129630000000000134e+00 3.166090000000000071e+00 1.013100000000000023e+01 1.132060000000000066e+00 3.692320000000000046e+00 1.172390000000000043e+01 1.938439999999999941e+00 3.895360000000000156e+00 7.763980000000000103e+00 8.105499999999999927e-01 1.882749999999999924e+00 9.013540000000000774e+00 2.570399999999999907e-01 3.793359999999999843e+00 5.362160000000000259e+00 4.514160000000000394e+00 3.751399999999999846e+00 8.644519999999999982e+00 5.013600000000000279e-01 1.848440000000000083e+00 6.525649999999999729e+00 4.039080000000000226e+00 1.923589999999999911e+00 1.080349999999999921e+00 3.185880000000000045e+00 1.084600000000000009e-01 2.599029999999999951e+00 1.210169999999999968e+00 2.040309999999999846e+00 3.166259999999999852e+00
4.406850000000000378e+00 1.640830000000000011e+00 1.204800000000000038e-01 3.087790000000000035e+00 5.762100000000000000e-01 1.792329999999999979e+00 4.554969999999999963e+00 2.275619999999999976e+00 3.595549999999999802e+00 1.849500000000000033e-01 3.422870000000000079e+00 1.101829999999999998e+01 2.082650000000000112e+00 2.487109999999999932e+00 3.544480000000000075e+00 5.797900000000000276e-01 3.363700000000000023e-01 4.529620000000000424e+00 2.037319999999999798e+00 1.472949999999999982e+00 1.279940000000000033e+01 1.756750000000000034e+00 1.933799999999999963e+00 1.707299999999999929e-01 1.724599999999999911e+00 2.082930000000000170e+00 5.852070000000000327e+00 3.261000000000000121e+00 7.207700000000000218e-01 5.068880000000000052e+00 4.695899999999999963e+00 1.610579999999999901e+00 1.313339999999999996e+01 2.833660000000000068e+00 4.593099999999999961e-01 7.360450000000000159e+00 2.821660000000000057e+00 3.486610000000000209e+00 1.441370000000000040e+01 5.738400000000000167e-01 3.546930000000000138e+00 1.573430000000000106e+00 4.539290000000000269e+00 2.230140000000000011e+00 6.872080000000000410e+00 8.303000000000000658e-02 5.668800000000000505e-01 9.112190000000000012e+00
1.064759999999999929e+00 1.774289999999999923e+00 1.012590000000000101e+00 3.703889999999999905e+00 1.967969999999999997e+00 6.111539999999999750e+00 4.995669999999999611e+00 3.138650000000000162e+00 2.447960000000000136e+00 3.411200000000000010e+00 1.191340000000000066e+00 9.394099999999999673e-01 3.187769999999999992e+00 1.328619999999999912e+00 8.620779999999999887e+00 4.976989999999999803e+00 1.659499999999999864e-01 5.193850000000000300e+00 9.366299999999999626e-01 2.027919999999999945e+00 8.853999999999999204e+00 3.407000000000000306e-02 3.316110000000000113e+00 1.072600000000000087e+01 4.691539999999999822e+00 5.553999999999999909e-02 7.525350000000000428e+00 4.832230000000000025e+00 3.611610000000000209e+00 1.667530000000000001e+01 1.162039999999999962e+00 1.871070000000000011e+00 6.711369999999999614e+00 3.552569999999999784e+00 1.467130000000000045e+00 3.753769999999999829e+00 2.404240000000000155e+00 3.427620000000000111e+00 1.692909999999999826e+01 2.552319999999999922e+00 3.248660000000000103e+00 2.609659999999999869e+00 1.114100000000000090e+00 1.629739999999999966e+00 3.903739999999999988e+00 2.561510000000000176e+00 3.722719999999999807e+00 5.569569999999999688e+00