7.872946865000000294e+00 0.000000000000000000e+00 0.000000000000000000e+00 1.149122179999999965e-01 7.749257658000000326e+00 0.000000000000000000e+00 -1.015217840000000038e-01 -1.526141749999999908e-01 7.928561670999999755e+00
8.387213843999999696e+00 0.000000000000000000e+00 0.000000000000000000e+00 9.521561300000000450e-02 8.249043332999999478e+00 0.000000000000000000e+00 1.305927980000000099e-01 -7.143583000000000571e-02 7.959001168000000348e+00
7.736024220000000007e+00 0.000000000000000000e+00 0.000000000000000000e+00 1.129137179999999963e-01 7.614486158000000060e+00 0.000000000000000000e+00 -9.975616399999999440e-02 -1.499599799999999927e-01 7.790671799000000064e+00
8.031270036000000445e+00 0.000000000000000000e+00 0.000000000000000000e+00 1.172230759999999955e-01 7.905093467000000373e+00 0.000000000000000000e+00 -1.035633640000000050e-01 -1.556832109999999880e-01 8.088003242999999287e+00
8.260019356000000812e+00 0.000000000000000000e+00 0.000000000000000000e+00 -1.396531510000000031e-01 7.842468739000000078e+00 0.000000000000000000e+00 -1.140619000000000008e-02 -1.266044550000000046e-01 8.057241043999999519e+00
