5.325186007000000110e+00 0.000000000000000000e+00 0.000000000000000000e+00 -1.010637330000000028e-01 3.878977524000000177e+00 0.000000000000000000e+00 -3.621420020000000184e-01 -8.595076200000000000e-02 1.741267860299999981e+01
5.440868519000000347e+00 0.000000000000000000e+00 0.000000000000000000e+00 3.878506699999999946e-02 3.925644902000000158e+00 0.000000000000000000e+00 -3.376687309999999997e-01 5.624593740000000119e-01 1.987599159699999873e+01
5.289968739999999947e+00 0.000000000000000000e+00 0.000000000000000000e+00 1.486511700000000061e-02 3.967861014999999991e+00 0.000000000000000000e+00 1.984852619999999956e-01 -3.876370949999999871e-01 1.818506606100000056e+01
5.017553346999999775e+00 0.000000000000000000e+00 0.000000000000000000e+00 1.037393590000000032e-01 3.528906314999999960e+00 0.000000000000000000e+00 1.988335980000000003e-01 7.919637399999999994e-02 1.215862611700000073e+01
5.287739349999999838e+00 0.000000000000000000e+00 0.000000000000000000e+00 -6.363541200000000231e-02 3.913056790000000174e+00 0.000000000000000000e+00 2.056065750000000136e-01 3.176247600000000060e-01 1.733197731799999985e+01
5.378735896000000238e+00 0.000000000000000000e+00 0.000000000000000000e+00 -1.782488299999999970e-02 3.693487463999999942e+00 0.000000000000000000e+00 -4.629445200000000260e-01 3.300896899999999912e-01 1.927995076299999866e+01
5.287739349999999838e+00 0.000000000000000000e+00 0.000000000000000000e+00 -6.363541200000000231e-02 3.913056790000000174e+00 0.000000000000000000e+00 2.056065750000000136e-01 3.176247600000000060e-01 1.733197731799999985e+01
5.055260714000000100e+00 0.000000000000000000e+00 0.000000000000000000e+00 5.128886500000000292e-02 3.616112504000000172e+00 0.000000000000000000e+00 3.052985599999999966e-01 4.474901099999999965e-01 1.961916006399999901e+01
4.937374875999999801e+00 0.000000000000000000e+00 0.000000000000000000e+00 -1.006086929999999990e-01 3.668443241999999938e+00 0.000000000000000000e+00 8.690273599999999432e-02 -3.243065600000000215e-01 1.605589571599999843e+01
5.215639063000000242e+00 0.000000000000000000e+00 0.000000000000000000e+00 -2.245356000000000088e-02 3.744627470999999819e+00 0.000000000000000000e+00 3.821650149999999968e-01 5.126419570000000370e-01 1.906263964600000094e+01
5.411859939000000175e+00 0.000000000000000000e+00 0.000000000000000000e+00 -1.020976090000000058e-01 3.741403319999999866e+00 0.000000000000000000e+00 -2.778160250000000220e-01 8.743608499999999673e-02 1.880242861800000043e+01
5.459743397000000442e+00 0.000000000000000000e+00 0.000000000000000000e+00 8.746516699999999644e-02 3.738974761999999785e+00 0.000000000000000000e+00 -2.863785449999999844e-01 -4.355296249999999758e-01 1.711919824099999943e+01
5.215639063000000242e+00 0.000000000000000000e+00 0.000000000000000000e+00 -2.245356000000000088e-02 3.744627470999999819e+00 0.000000000000000000e+00 3.821650149999999968e-01 5.126419570000000370e-01 1.906263964600000094e+01
5.325186007000000110e+00 0.000000000000000000e+00 0.000000000000000000e+00 -1.010637330000000028e-01 3.878977524000000177e+00 0.000000000000000000e+00 -3.621420020000000184e-01 -8.595076200000000000e-02 1.741267860299999981e+01
5.215639063000000242e+00 0.000000000000000000e+00 0.000000000000000000e+00 -2.245356000000000088e-02 3.744627470999999819e+00 0.000000000000000000e+00 3.821650149999999968e-01 5.126419570000000370e-01 1.906263964600000094e+01
5.556104316999999959e+00 0.000000000000000000e+00 0.000000000000000000e+00 5.934819499999999942e-02 3.907322479999999931e+00 0.000000000000000000e+00 8.336682199999999321e-02 1.964364070000000073e-01 1.888802937699999873e+01
5.121537540000000277e+00 0.000000000000000000e+00 0.000000000000000000e+00 -9.571539999999999909e-04 3.725983918999999922e+00 0.000000000000000000e+00 3.780231510000000017e-01 4.674767600000000189e-02 1.886934723899999966e+01
5.189006068000000305e+00 0.000000000000000000e+00 0.000000000000000000e+00 5.165531999999999763e-02 3.631833735999999924e+00 0.000000000000000000e+00 3.645080780000000131e-01 3.328298989999999846e-01 1.794769821599999915e+01
5.288226865999999582e+00 0.000000000000000000e+00 0.000000000000000000e+00 -6.657436499999999646e-02 3.907922099999999954e+00 0.000000000000000000e+00 6.284559300000000515e-02 -3.471746390000000071e-01 1.741786308600000055e+01
5.176222326000000429e+00 0.000000000000000000e+00 0.000000000000000000e+00 -1.003337039999999958e-01 3.683412890000000051e+00 0.000000000000000000e+00 -8.677005899999999661e-02 3.155099490000000118e-01 1.884345307899999966e+01
4.898393936999999809e+00 0.000000000000000000e+00 0.000000000000000000e+00 -2.265493299999999863e-02 3.580592272000000076e+00 0.000000000000000000e+00 -2.141942709999999916e-01 3.024885070000000176e-01 1.807854844099999880e+01
5.042201539999999760e+00 0.000000000000000000e+00 0.000000000000000000e+00 8.719288599999999723e-02 3.639505391000000145e+00 0.000000000000000000e+00 -2.805814100000000172e-02 -1.581780489999999872e-01 1.893433441599999867e+01
5.287739349999999838e+00 0.000000000000000000e+00 0.000000000000000000e+00 -6.363541200000000231e-02 3.913056790000000174e+00 0.000000000000000000e+00 2.056065750000000136e-01 3.176247600000000060e-01 1.733197731799999985e+01
5.435026378999999963e+00 0.000000000000000000e+00 0.000000000000000000e+00 -6.959999499999999784e-02 3.721211394000000006e+00 0.000000000000000000e+00 -3.560110000000000219e-01 -7.586774200000000190e-02 1.713545763999999849e+01
5.387825594999999801e+00 0.000000000000000000e+00 0.000000000000000000e+00 7.908428700000000311e-02 3.910565757000000087e+00 0.000000000000000000e+00 -5.678506099999999779e-02 3.891598210000000169e-01 1.421995682400000049e+01
5.055260714000000100e+00 0.000000000000000000e+00 0.000000000000000000e+00 5.128886500000000292e-02 3.616112504000000172e+00 0.000000000000000000e+00 3.052985599999999966e-01 4.474901099999999965e-01 1.961916006399999901e+01
5.293892522000000156e+00 0.000000000000000000e+00 0.000000000000000000e+00 -2.673360300000000161e-02 3.831827708000000055e+00 0.000000000000000000e+00 -2.487005499999999855e-02 2.233619410000000083e-01 1.637170114199999915e+01
5.189006068000000305e+00 0.000000000000000000e+00 0.000000000000000000e+00 5.165531999999999763e-02 3.631833735999999924e+00 0.000000000000000000e+00 3.645080780000000131e-01 3.328298989999999846e-01 1.794769821599999915e+01
5.042201539999999760e+00 0.000000000000000000e+00 0.000000000000000000e+00 8.719288599999999723e-02 3.639505391000000145e+00 0.000000000000000000e+00 -2.805814100000000172e-02 -1.581780489999999872e-01 1.893433441599999867e+01
5.017933487999999720e+00 0.000000000000000000e+00 0.000000000000000000e+00 -2.401813200000000106e-02 3.539131706000000044e+00 0.000000000000000000e+00 -4.242847200000000180e-02 1.358010299999999893e-01 1.236087220299999956e+01
5.287739349999999838e+00 0.000000000000000000e+00 0.000000000000000000e+00 -6.363541200000000231e-02 3.913056790000000174e+00 0.000000000000000000e+00 2.056065750000000136e-01 3.176247600000000060e-01 1.733197731799999985e+01
5.440868519000000347e+00 0.000000000000000000e+00 0.000000000000000000e+00 3.878506699999999946e-02 3.925644902000000158e+00 0.000000000000000000e+00 -3.376687309999999997e-01 5.624593740000000119e-01 1.987599159699999873e+01
5.378735896000000238e+00 0.000000000000000000e+00 0.000000000000000000e+00 -1.782488299999999970e-02 3.693487463999999942e+00 0.000000000000000000e+00 -4.629445200000000260e-01 3.300896899999999912e-01 1.927995076299999866e+01
5.176222326000000429e+00 0.000000000000000000e+00 0.000000000000000000e+00 -1.003337039999999958e-01 3.683412890000000051e+00 0.000000000000000000e+00 -8.677005899999999661e-02 3.155099490000000118e-01 1.884345307899999966e+01
5.217489511000000135e+00 0.000000000000000000e+00 0.000000000000000000e+00 4.272622999999999699e-02 3.830021835999999791e+00 0.000000000000000000e+00 1.788643149999999959e-01 1.578778999999999877e-01 1.460730945699999950e+01
5.525427851999999973e+00 0.000000000000000000e+00 0.000000000000000000e+00 6.428560899999999356e-02 3.858630969000000022e+00 0.000000000000000000e+00 2.072047240000000068e-01 4.060458470000000153e-01 1.426500036400000049e+01
4.857108903000000311e+00 0.000000000000000000e+00 0.000000000000000000e+00 -4.184211100000000128e-02 3.546493862999999802e+00 0.000000000000000000e+00 -1.417369769999999862e-01 -1.100524969999999991e-01 1.915352700500000083e+01
4.991672600000000237e+00 0.000000000000000000e+00 0.000000000000000000e+00 3.419392500000000001e-02 3.573572742000000080e+00 0.000000000000000000e+00 1.463936730000000019e-01 -3.411703400000000164e-01 1.764120514900000103e+01
5.300485296999999818e+00 0.000000000000000000e+00 0.000000000000000000e+00 1.574506300000000011e-02 3.739714589000000089e+00 0.000000000000000000e+00 6.599191599999999769e-02 -4.747029159999999748e-01 1.613034156599999847e+01
5.542812052000000378e+00 0.000000000000000000e+00 0.000000000000000000e+00 3.723673899999999787e-02 3.954436865999999995e+00 0.000000000000000000e+00 3.554308999999999854e-03 3.643055510000000052e-01 1.677100797399999976e+01
5.189006068000000305e+00 0.000000000000000000e+00 0.000000000000000000e+00 5.165531999999999763e-02 3.631833735999999924e+00 0.000000000000000000e+00 3.645080780000000131e-01 3.328298989999999846e-01 1.794769821599999915e+01
5.287739349999999838e+00 0.000000000000000000e+00 0.000000000000000000e+00 -6.363541200000000231e-02 3.913056790000000174e+00 0.000000000000000000e+00 2.056065750000000136e-01 3.176247600000000060e-01 1.733197731799999985e+01
5.189006068000000305e+00 0.000000000000000000e+00 0.000000000000000000e+00 5.165531999999999763e-02 3.631833735999999924e+00 0.000000000000000000e+00 3.645080780000000131e-01 3.328298989999999846e-01 1.794769821599999915e+01
4.853068186999999867e+00 0.000000000000000000e+00 0.000000000000000000e+00 3.816170299999999821e-02 3.440805205999999838e+00 0.000000000000000000e+00 -2.657933570000000079e-01 3.287395690000000092e-01 1.095522727300000021e+01
5.042201539999999760e+00 0.000000000000000000e+00 0.000000000000000000e+00 8.719288599999999723e-02 3.639505391000000145e+00 0.000000000000000000e+00 -2.805814100000000172e-02 -1.581780489999999872e-01 1.893433441599999867e+01
5.042201539999999760e+00 0.000000000000000000e+00 0.000000000000000000e+00 8.719288599999999723e-02 3.639505391000000145e+00 0.000000000000000000e+00 -2.805814100000000172e-02 -1.581780489999999872e-01 1.893433441599999867e+01
5.459743397000000442e+00 0.000000000000000000e+00 0.000000000000000000e+00 8.746516699999999644e-02 3.738974761999999785e+00 0.000000000000000000e+00 -2.863785449999999844e-01 -4.355296249999999758e-01 1.711919824099999943e+01
5.258078753000000383e+00 0.000000000000000000e+00 0.000000000000000000e+00 -5.228178700000000317e-02 3.755862801999999778e+00 0.000000000000000000e+00 2.906763259999999849e-01 -2.521709910000000110e-01 1.956042705100000134e+01
5.289968739999999947e+00 0.000000000000000000e+00 0.000000000000000000e+00 1.486511700000000061e-02 3.967861014999999991e+00 0.000000000000000000e+00 1.984852619999999956e-01 -3.876370949999999871e-01 1.818506606100000056e+01
5.288226865999999582e+00 0.000000000000000000e+00 0.000000000000000000e+00 -6.657436499999999646e-02 3.907922099999999954e+00 0.000000000000000000e+00 6.284559300000000515e-02 -3.471746390000000071e-01 1.741786308600000055e+01
5.288226865999999582e+00 0.000000000000000000e+00 0.000000000000000000e+00 -6.657436499999999646e-02 3.907922099999999954e+00 0.000000000000000000e+00 6.284559300000000515e-02 -3.471746390000000071e-01 1.741786308600000055e+01
5.325186007000000110e+00 0.000000000000000000e+00 0.000000000000000000e+00 -1.010637330000000028e-01 3.878977524000000177e+00 0.000000000000000000e+00 -3.621420020000000184e-01 -8.595076200000000000e-02 1.741267860299999981e+01
5.287739349999999838e+00 0.000000000000000000e+00 0.000000000000000000e+00 -6.363541200000000231e-02 3.913056790000000174e+00 0.000000000000000000e+00 2.056065750000000136e-01 3.176247600000000060e-01 1.733197731799999985e+01
5.425142901000000073e+00 0.000000000000000000e+00 0.000000000000000000e+00 7.956591999999999831e-02 3.938836712000000073e+00 0.000000000000000000e+00 -2.106550100000000036e-02 3.668757200000000163e-02 1.908253523400000162e+01
5.425142901000000073e+00 0.000000000000000000e+00 0.000000000000000000e+00 7.956591999999999831e-02 3.938836712000000073e+00 0.000000000000000000e+00 -2.106550100000000036e-02 3.668757200000000163e-02 1.908253523400000162e+01
5.017435133000000214e+00 0.000000000000000000e+00 0.000000000000000000e+00 -8.897704100000000671e-02 3.413023207000000170e+00 0.000000000000000000e+00 -3.376591680000000095e-01 4.167375669999999754e-01 1.702066965499999895e+01
5.156355571999999832e+00 0.000000000000000000e+00 0.000000000000000000e+00 6.395264800000000083e-02 3.564713102999999883e+00 0.000000000000000000e+00 -3.550840490000000127e-01 5.330510000000000109e-02 1.341346131499999927e+01
5.176222326000000429e+00 0.000000000000000000e+00 0.000000000000000000e+00 -1.003337039999999958e-01 3.683412890000000051e+00 0.000000000000000000e+00 -8.677005899999999661e-02 3.155099490000000118e-01 1.884345307899999966e+01
5.375206821999999995e+00 0.000000000000000000e+00 0.000000000000000000e+00 8.017785900000000410e-02 3.692486870999999837e+00 0.000000000000000000e+00 4.725885240000000098e-01 5.241647729999999727e-01 1.895508237299999976e+01
5.042201539999999760e+00 0.000000000000000000e+00 0.000000000000000000e+00 8.719288599999999723e-02 3.639505391000000145e+00 0.000000000000000000e+00 -2.805814100000000172e-02 -1.581780489999999872e-01 1.893433441599999867e+01
5.042201539999999760e+00 0.000000000000000000e+00 0.000000000000000000e+00 8.719288599999999723e-02 3.639505391000000145e+00 0.000000000000000000e+00 -2.805814100000000172e-02 -1.581780489999999872e-01 1.893433441599999867e+01
5.459743397000000442e+00 0.000000000000000000e+00 0.000000000000000000e+00 8.746516699999999644e-02 3.738974761999999785e+00 0.000000000000000000e+00 -2.863785449999999844e-01 -4.355296249999999758e-01 1.711919824099999943e+01
5.176222326000000429e+00 0.000000000000000000e+00 0.000000000000000000e+00 -1.003337039999999958e-01 3.683412890000000051e+00 0.000000000000000000e+00 -8.677005899999999661e-02 3.155099490000000118e-01 1.884345307899999966e+01
5.375206821999999995e+00 0.000000000000000000e+00 0.000000000000000000e+00 8.017785900000000410e-02 3.692486870999999837e+00 0.000000000000000000e+00 4.725885240000000098e-01 5.241647729999999727e-01 1.895508237299999976e+01
5.289968739999999947e+00 0.000000000000000000e+00 0.000000000000000000e+00 1.486511700000000061e-02 3.967861014999999991e+00 0.000000000000000000e+00 1.984852619999999956e-01 -3.876370949999999871e-01 1.818506606100000056e+01
4.782965915000000123e+00 0.000000000000000000e+00 0.000000000000000000e+00 1.690721900000000111e-02 3.591419419999999807e+00 0.000000000000000000e+00 -2.674663380000000257e-01 -5.515501700000000063e-02 1.037685961899999931e+01
5.055260714000000100e+00 0.000000000000000000e+00 0.000000000000000000e+00 5.128886500000000292e-02 3.616112504000000172e+00 0.000000000000000000e+00 3.052985599999999966e-01 4.474901099999999965e-01 1.961916006399999901e+01
5.098909617000000338e+00 0.000000000000000000e+00 0.000000000000000000e+00 -9.913585299999999600e-02 3.636986809999999792e+00 0.000000000000000000e+00 -2.826263090000000200e-01 -1.315077139999999978e-01 1.836757189500000109e+01
5.055260714000000100e+00 0.000000000000000000e+00 0.000000000000000000e+00 5.128886500000000292e-02 3.616112504000000172e+00 0.000000000000000000e+00 3.052985599999999966e-01 4.474901099999999965e-01 1.961916006399999901e+01
4.990249999999999631e+00 0.000000000000000000e+00 0.000000000000000000e+00 -4.171039199999999891e-02 3.684070489999999864e+00 0.000000000000000000e+00 1.680205899999999974e-01 4.332063130000000095e-01 1.922085813900000062e+01
5.378735896000000238e+00 0.000000000000000000e+00 0.000000000000000000e+00 -1.782488299999999970e-02 3.693487463999999942e+00 0.000000000000000000e+00 -4.629445200000000260e-01 3.300896899999999912e-01 1.927995076299999866e+01
5.459743397000000442e+00 0.000000000000000000e+00 0.000000000000000000e+00 8.746516699999999644e-02 3.738974761999999785e+00 0.000000000000000000e+00 -2.863785449999999844e-01 -4.355296249999999758e-01 1.711919824099999943e+01
5.446776705000000440e+00 0.000000000000000000e+00 0.000000000000000000e+00 9.133300000000000121e-05 3.989060873000000118e+00 0.000000000000000000e+00 9.206134400000000328e-02 2.969439289999999954e-01 1.559991364699999927e+01
5.016963679999999925e+00 0.000000000000000000e+00 0.000000000000000000e+00 -7.746540000000000370e-02 3.432886451999999977e+00 0.000000000000000000e+00 3.548780799999999847e-01 1.892900750000000021e-01 1.258623211399999953e+01
5.375206821999999995e+00 0.000000000000000000e+00 0.000000000000000000e+00 8.017785900000000410e-02 3.692486870999999837e+00 0.000000000000000000e+00 4.725885240000000098e-01 5.241647729999999727e-01 1.895508237299999976e+01
5.176222326000000429e+00 0.000000000000000000e+00 0.000000000000000000e+00 -1.003337039999999958e-01 3.683412890000000051e+00 0.000000000000000000e+00 -8.677005899999999661e-02 3.155099490000000118e-01 1.884345307899999966e+01
5.293892522000000156e+00 0.000000000000000000e+00 0.000000000000000000e+00 -2.673360300000000161e-02 3.831827708000000055e+00 0.000000000000000000e+00 -2.487005499999999855e-02 2.233619410000000083e-01 1.637170114199999915e+01
5.425142901000000073e+00 0.000000000000000000e+00 0.000000000000000000e+00 7.956591999999999831e-02 3.938836712000000073e+00 0.000000000000000000e+00 -2.106550100000000036e-02 3.668757200000000163e-02 1.908253523400000162e+01
5.435026378999999963e+00 0.000000000000000000e+00 0.000000000000000000e+00 -6.959999499999999784e-02 3.721211394000000006e+00 0.000000000000000000e+00 -3.560110000000000219e-01 -7.586774200000000190e-02 1.713545763999999849e+01
5.556104316999999959e+00 0.000000000000000000e+00 0.000000000000000000e+00 5.934819499999999942e-02 3.907322479999999931e+00 0.000000000000000000e+00 8.336682199999999321e-02 1.964364070000000073e-01 1.888802937699999873e+01
5.130786837999999683e+00 0.000000000000000000e+00 0.000000000000000000e+00 1.031847889999999990e-01 3.570984559999999863e+00 0.000000000000000000e+00 4.249573810000000229e-01 -1.948563180000000006e-01 1.834760576100000051e+01
5.375206821999999995e+00 0.000000000000000000e+00 0.000000000000000000e+00 8.017785900000000410e-02 3.692486870999999837e+00 0.000000000000000000e+00 4.725885240000000098e-01 5.241647729999999727e-01 1.895508237299999976e+01
5.375206821999999995e+00 0.000000000000000000e+00 0.000000000000000000e+00 8.017785900000000410e-02 3.692486870999999837e+00 0.000000000000000000e+00 4.725885240000000098e-01 5.241647729999999727e-01 1.895508237299999976e+01
5.435026378999999963e+00 0.000000000000000000e+00 0.000000000000000000e+00 -6.959999499999999784e-02 3.721211394000000006e+00 0.000000000000000000e+00 -3.560110000000000219e-01 -7.586774200000000190e-02 1.713545763999999849e+01
5.178728065999999686e+00 0.000000000000000000e+00 0.000000000000000000e+00 1.098456159999999932e-01 3.767451298000000115e+00 0.000000000000000000e+00 -3.438622239999999941e-01 -3.777484509999999851e-01 1.350602079099999919e+01
5.293892522000000156e+00 0.000000000000000000e+00 0.000000000000000000e+00 -2.673360300000000161e-02 3.831827708000000055e+00 0.000000000000000000e+00 -2.487005499999999855e-02 2.233619410000000083e-01 1.637170114199999915e+01
4.990249999999999631e+00 0.000000000000000000e+00 0.000000000000000000e+00 -4.171039199999999891e-02 3.684070489999999864e+00 0.000000000000000000e+00 1.680205899999999974e-01 4.332063130000000095e-01 1.922085813900000062e+01
4.898393936999999809e+00 0.000000000000000000e+00 0.000000000000000000e+00 -2.265493299999999863e-02 3.580592272000000076e+00 0.000000000000000000e+00 -2.141942709999999916e-01 3.024885070000000176e-01 1.807854844099999880e+01
5.371217387999999815e+00 0.000000000000000000e+00 0.000000000000000000e+00 -4.547976599999999786e-02 3.836961840999999929e+00 0.000000000000000000e+00 2.779107579999999800e-01 4.229153469999999970e-01 1.716291758399999878e+01
5.459743397000000442e+00 0.000000000000000000e+00 0.000000000000000000e+00 8.746516699999999644e-02 3.738974761999999785e+00 0.000000000000000000e+00 -2.863785449999999844e-01 -4.355296249999999758e-01 1.711919824099999943e+01
5.293892522000000156e+00 0.000000000000000000e+00 0.000000000000000000e+00 -2.673360300000000161e-02 3.831827708000000055e+00 0.000000000000000000e+00 -2.487005499999999855e-02 2.233619410000000083e-01 1.637170114199999915e+01
5.055260714000000100e+00 0.000000000000000000e+00 0.000000000000000000e+00 5.128886500000000292e-02 3.616112504000000172e+00 0.000000000000000000e+00 3.052985599999999966e-01 4.474901099999999965e-01 1.961916006399999901e+01
5.355411605999999658e+00 0.000000000000000000e+00 0.000000000000000000e+00 -8.809374999999999845e-02 3.832764983000000125e+00 0.000000000000000000e+00 3.769017900000000143e-01 -7.212873599999999885e-02 1.813353067899999971e+01
5.033887733000000253e+00 0.000000000000000000e+00 0.000000000000000000e+00 4.434163499999999730e-02 3.420615308999999993e+00 0.000000000000000000e+00 5.328544379999999858e-01 5.436353689999999794e-01 1.903174273300000152e+01
5.021829592999999647e+00 0.000000000000000000e+00 0.000000000000000000e+00 -1.630458699999999886e-02 3.712240271000000202e+00 0.000000000000000000e+00 -3.975977840000000096e-01 2.083715800000000007e-01 1.796291776400000018e+01
5.189006068000000305e+00 0.000000000000000000e+00 0.000000000000000000e+00 5.165531999999999763e-02 3.631833735999999924e+00 0.000000000000000000e+00 3.645080780000000131e-01 3.328298989999999846e-01 1.794769821599999915e+01
5.033887733000000253e+00 0.000000000000000000e+00 0.000000000000000000e+00 4.434163499999999730e-02 3.420615308999999993e+00 0.000000000000000000e+00 5.328544379999999858e-01 5.436353689999999794e-01 1.903174273300000152e+01
5.556104316999999959e+00 0.000000000000000000e+00 0.000000000000000000e+00 5.934819499999999942e-02 3.907322479999999931e+00 0.000000000000000000e+00 8.336682199999999321e-02 1.964364070000000073e-01 1.888802937699999873e+01
5.378735896000000238e+00 0.000000000000000000e+00 0.000000000000000000e+00 -1.782488299999999970e-02 3.693487463999999942e+00 0.000000000000000000e+00 -4.629445200000000260e-01 3.300896899999999912e-01 1.927995076299999866e+01
4.898393936999999809e+00 0.000000000000000000e+00 0.000000000000000000e+00 -2.265493299999999863e-02 3.580592272000000076e+00 0.000000000000000000e+00 -2.141942709999999916e-01 3.024885070000000176e-01 1.807854844099999880e+01
