4.654749999999999943e+00 3.707629999999999981e+00 5.241749999999999687e+00 2.237750000000000128e+00 1.294960000000000111e+00 1.675900000000000034e+01 4.250060000000000393e+00 1.635890000000000066e+00 1.402809999999999890e+00 3.266070000000000029e+00 1.673219999999999930e+00 4.562439999999999607e+00 3.324879999999999836e+00 3.569230000000000125e+00 6.185500000000000442e-01 4.312739999999999796e+00 1.815369999999999928e+00 6.732800000000000118e+00 1.705449999999999910e+00 1.761679999999999913e+00 1.061679999999999957e+01 9.196699999999999875e-01 3.553170000000000162e+00 7.948600000000000110e-01 2.017450000000000188e+00 1.689349999999999907e+00 2.107200000000000184e+00 4.932999999999999885e-02 3.791230000000000100e+00 8.622070000000000789e+00 3.074440000000000062e+00 3.364419999999999966e+00 8.733100000000000307e+00 1.350170000000000092e+00 1.642149999999999999e+00 6.832080000000000375e+00 1.591690000000000049e+00 3.818880000000000052e+00 4.158900000000000041e+00 2.454610000000000181e+00 3.525599999999999845e+00 6.101060000000000372e+00 3.996879999999999988e+00 3.456649999999999778e+00 3.017259999999999831e+00 4.108700000000000130e-01 1.922569999999999890e+00 4.669400000000000439e+00
1.089990000000000014e+00 1.075730000000000075e+00 9.607999999999999874e-01 1.919459999999999944e+00 1.056440000000000046e+00 3.568229999999999791e+00 2.993299999999999850e-01 3.101690000000000058e+00 1.190000000000000085e-03 4.830589999999999939e+00 3.130660000000000220e+00 7.186079999999999579e+00 5.304109999999999658e+00 6.035500000000000309e-01 4.649269999999999570e+00 4.281559999999999810e+00 1.417550000000000088e+00 9.413200000000000456e-01 1.761300000000000088e-01 2.610419999999999963e+00 2.815910000000000135e+00 4.549109999999999765e+00 1.370900000000000007e+00 1.078490000000000038e+01 1.061039999999999983e+00 2.815549999999999997e+00 5.476180000000000270e+00 2.140260000000000051e+00 3.093280000000000030e+00 7.478279999999999816e+00 3.874769999999999825e+00 2.811400000000000010e-01 2.802410000000000068e+00 3.033630000000000049e+00 1.222350000000000048e+00 6.087699999999999889e+00 2.494219999999999882e+00 2.574199999999999822e+00 2.007270000000000110e+00 3.756940000000000168e+00 3.182199999999999918e+00 4.751960000000000406e+00 3.524900000000000255e-01 1.334910000000000041e+00 7.766040000000000276e+00 3.349499999999999922e+00 7.477500000000000258e-01 8.797530000000000072e+00
7.993900000000000450e-01 3.497739999999999849e+00 6.843230000000000146e+00 2.099180000000000046e+00 3.867280000000000051e+00 4.244740000000000180e+00 4.887979999999999769e+00 5.361299999999999955e-01 3.992690000000000072e+00 4.318200000000000038e+00 3.123429999999999929e+00 8.841029999999999944e+00 3.323679999999999968e+00 1.038310000000000066e+00 7.544679999999999609e+00 1.237400000000000028e-01 2.554139999999999855e+00 2.182059999999999889e+00 2.728190000000000115e+00 2.002339999999999787e+00 3.334870000000000001e+00 1.464310000000000000e+00 3.545380000000000198e+00 9.405730000000000146e+00 3.718630000000000102e+00 3.222599999999999909e-01 2.190179999999999794e+00 1.970650000000000013e+00 1.170039999999999969e+00 7.234899999999999665e-01 6.125300000000000189e-01 2.320699999999999985e+00 1.791069999999999851e+01 3.614749999999999908e+00 2.881219999999999892e+00 5.604739999999999611e+00 4.608099999999999974e-01 1.479940000000000033e+00 8.497080000000000410e+00 1.509770000000000056e+00 1.485139999999999905e+00 5.928740000000000343e+00 3.119429999999999925e+00 2.236610000000000209e+00 1.672080000000000055e+01 3.666399999999999881e+00 1.225530000000000008e+00 9.803819999999999979e+00
3.988090000000000135e+00 1.446080000000000032e+00 1.597760000000000069e+00 8.077999999999999625e-01 9.588200000000000056e-01 5.013160000000000061e+00 2.430210000000000203e+00 2.735320000000000196e+00 6.441580000000000084e+00 1.493559999999999999e+00 8.151699999999999502e-01 2.144969999999999821e+00 2.493409999999999904e+00 2.367420000000000080e+00 3.340949999999999864e+00 4.769899999999999807e+00 2.359370000000000189e+00 9.764129999999999754e+00 3.728619999999999823e+00 9.597099999999999520e-01 8.372210000000000818e+00 3.244829999999999881e+00 8.415200000000000458e-01 4.953380000000000116e+00 4.329640000000000377e+00 2.627200000000000202e+00 3.975359999999999783e+00 1.094349999999999934e+00 1.140719999999999956e+00 8.260979999999999990e+00 2.055159999999999876e+00 2.478549999999999809e+00 1.330699999999999938e-01 3.818639999999999812e+00 8.997600000000000042e-01 1.099440000000000062e+01 1.228259999999999907e+00 7.354100000000000081e-01 1.067239999999999966e+01 4.495129999999999626e+00 2.874880000000000102e+00 6.562429999999999986e+00 4.856069999999999887e+00 3.065249999999999808e+00 4.447900000000000187e-01 2.626710000000000100e+00 2.508379999999999832e+00 9.502280000000000726e+00
3.455569999999999808e+00 1.424960000000000004e+00 6.762799999999999923e-01 2.011420000000000208e+00 9.887000000000000233e-01 7.027389999999999581e+00 5.956700000000000328e-01 2.142180000000000195e+00 5.512550000000000061e+00 3.240679999999999783e+00 2.583880000000000177e+00 8.013550000000000395e+00 4.753470000000000084e+00 3.112500000000000266e-01 6.039410000000000167e+00 2.471769999999999801e+00 3.260380000000000056e+00 1.696430000000000149e+01 4.452300000000000146e+00 6.880000000000000004e-02 3.571509999999999962e+00 4.158760000000000012e+00 7.256099999999999772e-01 8.204110000000000014e+00 3.287910000000000110e+00 1.981540000000000079e+00 5.733430000000000248e+00 3.060160000000000213e+00 3.464999999999999858e+00 1.064329999999999998e+01 2.067279999999999784e+00 3.695669999999999789e+00 2.237029999999999852e+00 5.208129999999999704e+00 3.004340000000000011e+00 1.114589999999999970e+00 7.818599999999999994e-01 8.538499999999999979e-01 9.582000000000000239e-02 1.686870000000000092e+00 3.969440000000000079e+00 4.311469999999999914e+00 1.066629999999999967e+00 1.576859999999999928e+00 3.040109999999999868e+00 5.667100000000000470e-01 2.918190000000000062e+00 7.899009999999999643e+00
4.445509999999999629e+00 3.139679999999999804e+00 4.398819999999999730e+00 3.927999999999999825e-01 1.843409999999999993e+00 7.439939999999999998e+00 4.135539999999999772e+00 7.469999999999999973e-01 4.454699999999999771e-01 2.542819999999999858e+00 2.398460000000000036e+00 4.346400000000000263e-01 4.425270000000000259e+00 5.373099999999999543e-01 8.680189999999999628e+00 1.383850000000000025e+00 3.462499999999999911e+00 5.934300000000000352e+00 6.969999999999999807e-02 2.723409999999999886e+00 1.488790000000000058e+00 1.298850000000000060e+00 6.144899999999999807e-01 1.275279999999999969e+00 4.360500000000000043e+00 3.478060000000000151e+00 6.393379999999999619e+00 -3.796999999999999681e-02 3.071870000000000100e+00 1.767970000000000041e+01 1.325890000000000013e+00 1.740380000000000038e+00 1.043490000000000073e+01 1.946800000000000086e+00 3.745229999999999837e+00 9.137130000000000862e+00 2.046219999999999928e+00 2.867529999999999912e+00 3.314439999999999831e+00 3.630220000000000002e+00 1.321490000000000054e+00 2.886260000000000048e+00 5.432799999999999851e-01 1.248499999999999943e+00 3.998180000000000067e+00 2.796699999999999964e+00 1.878039999999999932e+00 7.823120000000000296e+00
3.343109999999999804e+00 9.922699999999999854e-01 1.793420000000000014e+00 1.782610000000000028e+00 3.549360000000000070e+00 7.944799999999999862e+00 4.880300000000000193e-01 3.335890000000000022e+00 5.873149999999999871e+00 3.378499999999999837e+00 2.840300000000000047e+00 5.547519999999999563e+00 4.479359999999999786e+00 3.592000000000000193e-01 7.267669999999999852e+00 7.328500000000000014e-01 3.993959999999999955e+00 1.565329999999999977e+01 4.807100000000000151e+00 1.339380000000000015e+00 4.428289999999999615e+00 3.567450000000000010e+00 3.843170000000000197e+00 1.058409999999999940e+01 3.607050000000000090e+00 3.191510000000000069e+00 3.306090000000000195e+00 4.177649999999999864e+00 2.247860000000000191e+00 8.840980000000000061e+00 1.984040000000000026e+00 2.723069999999999879e+00 4.201400000000000134e-01 4.733380000000000365e+00 2.597280000000000033e+00 1.138970000000000038e+00 6.881199999999999539e-01 7.126400000000000512e-01 8.367799999999999683e-01 2.251700000000000035e+00 7.442999999999999616e-01 4.659440000000000026e+00 1.258450000000000069e+00 2.665049999999999919e+00 3.288819999999999855e+00 1.522189999999999932e+00 1.748429999999999929e+00 9.500460000000000349e+00
3.209950000000000081e+00 5.990499999999999714e-01 1.874089999999999989e+01 1.656009999999999982e+00 2.785079999999999778e+00 8.667830000000000368e+00 1.965929999999999955e+00 1.831849999999999978e+00 4.593860000000000277e+00 8.554399999999999782e-01 1.548580000000000068e+00 1.642500000000000071e+01 3.219699999999999784e-01 1.080009999999999915e+00 9.186820000000000874e+00 3.783529999999999838e+00 2.286639999999999784e+00 1.691769999999999996e+00 2.671320000000000139e+00 7.556699999999999529e-01 1.000869999999999926e+01 8.287499999999999867e-01 1.248100000000000043e-01 3.624600000000000044e+00 3.248540000000000205e+00 1.391699999999999882e-01 3.329050000000000065e+00 3.118600000000000261e-01 1.998800000000000021e-01 7.281999999999999584e-01 1.487840000000000051e+00 2.348040000000000127e+00 1.836540000000000106e+01 4.530350000000000321e+00 2.169929999999999914e+00 4.873160000000000380e+00 7.935400000000000231e-01 3.653739999999999988e+00 6.577379999999999782e+00 3.076729999999999965e+00 3.663460000000000161e+00 6.377530000000000143e+00 4.294069999999999609e+00 2.671650000000000080e+00 7.904250000000000220e+00 4.774930000000000341e+00 2.491210000000000147e+00 1.087030000000000030e+01
2.433549999999999880e+00 2.259599999999999942e-01 1.601736000000000004e+01 3.825750000000000206e+00 2.376360000000000028e+00 9.220840000000000813e+00 3.357019999999999893e+00 2.788499999999999979e+00 1.383769999999999989e+01 3.810249999999999915e+00 5.903399999999999759e-01 1.176810000000000045e+01 3.290880000000000027e+00 1.989800000000000013e+00 4.032090000000000174e+00 1.684339999999999948e+00 -5.967999999999999694e-02 4.172690000000000232e+00 2.046260000000000190e+00 2.840079999999999938e+00 8.561289999999999623e+00 2.084830000000000183e+00 1.050370000000000026e+00 6.256420000000000314e+00 2.573360000000000092e+00 2.408840000000000092e+00 1.122109999999999985e+01 4.500670000000000393e+00 3.478689999999999838e+00 2.120509999999999895e+00 5.916700000000000292e-01 3.052340000000000053e+00 1.487180000000000035e+01 2.254129999999999967e+00 2.514920000000000044e+00 1.866130000000000067e+00 4.542709999999999582e+00 5.149500000000000188e-01 5.844400000000000261e+00 4.349109999999999587e+00 1.883310000000000040e+00 6.968100000000000405e-01 1.882710000000000106e+00 8.441899999999999959e-01 1.307019999999999982e+01 1.146589999999999998e+00 1.065299999999999997e-01 1.100300000000000011e+01
4.762299999999999867e-01 7.666199999999999681e-01 1.790889999999999915e+01 3.008259999999999934e+00 2.906010000000000204e+00 7.175790000000000113e+00 2.509959999999999969e+00 8.007499999999999618e-01 1.898440000000000083e+01 3.593529999999999891e+00 2.626300000000000079e+00 2.350719999999999921e+00 4.669030000000000236e+00 7.769000000000000350e-01 3.551629999999999843e+00 1.001200000000000090e+00 1.935149999999999926e+00 1.092350000000000065e+01 4.309000000000000052e-01 2.194280000000000008e+00 8.785719999999999530e+00 1.390390000000000015e+00 8.940399999999999459e-01 2.600140000000000118e+00 7.848199999999999621e-01 2.660060000000000091e+00 3.863980000000000192e+00 2.727299999999999724e-01 2.423880000000000035e+00 4.777500000000000080e-01 4.306589999999999918e+00 3.993900000000000228e-01 1.217729999999999979e+00 1.341590000000000060e+00 6.511799999999999811e-01 7.766320000000000334e+00 1.836000000000000076e+00 8.016600000000000392e-01 5.393740000000000201e+00 2.010500000000000065e-01 2.267319999999999780e+00 6.353220000000000312e+00 3.936780000000000168e+00 1.019970000000000043e+00 8.250669999999999504e+00 3.620049999999999990e+00 2.329200000000000159e+00 4.847610000000000419e+00
3.692889999999999784e+00 2.055810000000000137e+00 3.707320000000000171e+00 1.479589999999999961e+00 8.151399999999999757e-01 1.841059999999999874e+01 5.482900000000000551e-01 2.361009999999999831e+00 3.694440000000000168e+00 8.212399999999999700e-01 3.729200000000000070e+00 7.691379999999999661e+00 4.770640000000000214e+00 2.480980000000000185e+00 9.121710000000000207e+00 2.382289999999999797e+00 2.424900000000000055e+00 8.600030000000000285e+00 7.926299999999999457e-01 2.671710000000000029e+00 6.287599999999999856e-01 4.806339999999999613e+00 4.797799999999999843e-01 2.070250000000000146e+00 4.240240000000000009e+00 3.614050000000000207e+00 1.129739999999999966e+01 3.025669999999999860e+00 1.724790000000000045e+00 6.255309999999999704e+00 4.074600000000000222e+00 3.892300000000000204e-01 7.990579999999999572e+00 4.483209999999999695e+00 4.025000000000000105e-02 5.613039999999999807e+00 1.865499999999999936e+00 4.209600000000000009e-01 2.439830000000000165e+00 3.136169999999999902e+00 2.550879999999999814e+00 1.634710000000000107e+00 4.456809999999999938e+00 1.000760000000000094e+00 1.854129999999999967e+01 1.666849999999999943e+00 3.665739999999999998e+00 5.067619999999999791e+00
5.157499999999999751e+00 3.227440000000000087e+00 5.571679999999999744e+00 3.258550000000000058e+00 3.516090000000000160e+00 8.103320000000000078e+00 4.456769999999999676e+00 1.341480000000000006e+00 8.765259999999999607e+00 4.896130000000000315e+00 3.309959999999999791e+00 1.049150000000000027e+01 2.788139999999999841e+00 2.873359999999999914e+00 5.720100000000000184e-01 2.113869999999999916e+00 3.025609999999999911e+00 4.794410000000000061e+00 1.588379999999999903e+00 2.067790000000000017e+00 9.592950000000000088e+00 3.094289999999999985e+00 1.473039999999999905e+00 2.220340000000000202e+00 4.027980000000000338e+00 1.366400000000000059e+00 6.450990000000000002e+00 3.906699999999999839e+00 6.933599999999999763e-01 1.706629999999999825e+01 5.143749999999999822e+00 2.562399999999999789e+00 2.535299999999999887e+00 1.483179999999999943e+00 8.708599999999999675e-01 6.307559999999999611e+00 8.673600000000000199e-01 5.924899999999999611e-01 1.625820000000000043e+00 7.052500000000000435e-01 3.103689999999999838e+00 7.909309999999999619e+00 3.889400000000000190e+00 2.974209999999999798e+00 1.477420000000000044e+01 7.853999999999999870e-01 1.576089999999999991e+00 4.128040000000000376e+00
4.986919999999999575e+00 2.735069999999999890e+00 5.732500000000000373e-01 1.161689999999999889e+00 2.792549999999999866e+00 9.585649999999999338e+00 2.339090000000000114e+00 2.494149999999999867e+00 3.830490000000000173e+00 2.068350000000000133e+00 2.685639999999999805e+00 1.718149999999999977e+01 1.001800000000000024e+00 3.589999999999999858e-01 2.538250000000000117e+00 3.566279999999999895e+00 1.817639999999999922e+00 6.452189999999999870e+00 3.146850000000000147e+00 5.059799999999999853e-01 1.336969999999999992e+00 4.673939999999999984e+00 1.088389999999999969e+00 9.200100000000000833e+00 4.733299999999999730e-01 3.407859999999999889e+00 7.588930000000000398e+00 1.095979999999999954e+00 7.699099999999999833e-01 3.024899999999999811e-01 2.231510000000000105e+00 2.289169999999999927e+00 1.615850000000000009e+00 2.509349999999999969e+00 7.013899999999999579e-01 7.976189999999999891e+00 5.225979999999999848e+00 2.651769999999999960e+00 5.200050000000000061e+00 1.701189999999999980e+00 6.912800000000000056e-01 4.979720000000000368e+00 3.289320000000000022e+00 2.913930000000000131e+00 9.360519999999999285e+00 3.934190000000000076e+00 7.809899999999999620e-01 3.667030000000000012e+00
1.458979999999999944e+00 4.585099999999999731e-01 5.589800000000000324e+00 2.465759999999999952e+00 3.799040000000000195e+00 1.585210000000000008e+01 3.205010000000000137e+00 2.414060000000000095e+00 4.517499999999999849e-01 3.876630000000000020e+00 6.376999999999999336e-02 5.849779999999999980e+00 2.335189999999999877e+00 4.605899999999999994e-01 1.663010000000000099e+00 3.796339999999999826e+00 1.953929999999999945e+00 1.009759999999999991e+01 2.384689999999999976e+00 2.597389999999999866e+00 4.572709999999999830e+00 5.127570000000000405e+00 6.596400000000000041e-01 7.420299999999999674e-01 1.410819999999999963e+00 2.469800000000000217e+00 2.149010000000000087e+00 2.644199999999999884e-01 3.393489999999999895e+00 9.460570000000000590e+00 1.600850000000000106e+00 1.766089999999999938e+00 7.488620000000000054e+00 4.268080000000000318e+00 2.065049999999999830e+00 7.271209999999999951e+00 3.781499999999999861e+00 2.125649999999999817e+00 2.705439999999999845e+00 3.451309999999999878e+00 -3.613000000000000239e-02 8.415739999999999554e+00 5.545900000000000274e-01 4.609599999999999809e-01 3.429619999999999891e+00 3.930000000000000160e-02 2.054240000000000066e+00 5.231169999999999654e+00
2.212019999999999875e+00 1.402870000000000061e+00 1.819640000000000057e+01 2.668449999999999989e+00 2.124429999999999819e+00 8.328049999999999287e+00 2.570219999999999949e+00 2.389799999999999980e-01 4.115840000000000387e+00 1.710820000000000007e+00 1.655739999999999990e+00 2.273639999999999883e+00 1.611960000000000059e+00 1.970499999999999918e+00 4.900089999999999613e+00 4.142299999999999649e+00 2.758700000000000041e-01 7.818439999999999834e+00 4.457110000000000127e+00 3.402019999999999822e+00 5.715110000000000134e+00 1.974259999999999904e+00 3.872259999999999813e+00 6.298140000000000072e+00 4.705599999999999561e+00 1.461799999999999988e+00 4.345069999999999766e+00 5.381960000000000299e+00 8.591900000000000093e-01 1.805359999999999943e+01 1.547220000000000040e+00 3.441489999999999938e+00 7.841700000000000337e-01 1.227070000000000105e+00 3.626599999999999824e+00 8.412409999999999499e+00 5.147899999999999920e+00 3.333470000000000155e+00 3.189810000000000034e+00 4.568590000000000373e+00 1.380609999999999893e+00 1.292219999999999924e+00 4.841120000000000090e+00 2.153109999999999857e+00 9.572979999999999379e+00 2.144600000000000117e-01 1.743030000000000079e+00 7.155870000000000175e+00
2.748969999999999914e+00 2.869069999999999787e+00 4.929299999999999571e+00 1.768159999999999954e+00 2.826169999999999849e+00 9.029790000000000205e+00 2.723460000000000214e+00 8.112099999999999866e-01 3.612199999999999855e-01 4.845329999999999693e+00 1.356030000000000069e+00 6.353010000000000268e+00 1.153319999999999901e+00 1.294910000000000005e+00 5.523539999999999672e+00 3.926590000000000025e+00 8.043700000000000294e-01 4.444600000000000328e+00 4.039760000000000240e+00 2.897520000000000095e+00 1.864229999999999876e+01 1.356759999999999966e+00 1.180520000000000014e+00 2.740569999999999951e+00 1.686799999999999966e-01 9.606999999999999984e-01 1.874399999999999977e+01 5.449270000000000280e+00 3.362169999999999881e+00 1.094519999999999982e+01 2.978169999999999984e+00 2.642459999999999809e+00 2.106819999999999915e+00 2.326100000000000112e-01 3.173970000000000180e+00 4.609169999999999767e+00 2.709509999999999863e+00 3.543799999999999728e-01 6.991789999999999949e+00 4.853720000000000034e+00 6.572000000000000064e-02 2.259230000000000071e+00 4.166900000000000048e-01 3.119899999999999896e+00 7.166070000000000384e+00 4.417699999999999960e-01 8.272300000000000209e-01 9.058920000000000528e+00
5.279270000000000351e+00 2.755349999999999966e+00 8.121909999999999741e+00 4.584600000000000009e+00 3.583699999999999886e+00 1.675159999999999982e+01 3.517110000000000181e+00 1.693600000000000105e-01 8.925200000000000244e+00 4.800880000000000258e+00 2.763889999999999958e+00 5.237440000000000317e+00 3.707939999999999792e+00 3.527280000000000193e+00 3.336770000000000014e+00 1.386509999999999909e+00 1.894130000000000091e+00 8.274200000000000443e-01 3.372770000000000046e+00 3.499070000000000125e+00 2.105700000000000072e-01 3.450239999999999974e+00 1.121220000000000105e+00 5.494239999999999569e+00 2.185360000000000191e+00 3.272639999999999993e+00 6.795219999999999594e+00 7.733999999999999764e-01 1.318550000000000111e+00 6.868509999999999671e+00 3.511270000000000113e+00 1.295330000000000092e+00 2.053809999999999913e+00 8.823199999999999932e-01 6.591500000000000137e-01 4.150660000000000238e+00 5.126190000000000246e+00 2.026619999999999866e+00 1.003200000000000003e+01 2.106650000000000134e+00 1.856819999999999915e+00 8.750659999999999883e+00 6.359799999999999898e-01 2.246179999999999843e+00 2.951029999999999820e+00 2.921170000000000044e+00 1.820559999999999956e+00 1.753780000000000072e+01
7.949199999999999600e-01 3.726980000000000182e+00 6.174739999999999895e+00 4.021300000000000097e+00 5.051400000000000334e-01 5.083699999999999886e-01 3.841499999999999915e-01 8.641699999999999937e-01 3.678739999999999899e+00 3.299310000000000187e+00 2.408249999999999780e+00 1.715729999999999933e+01 1.599129999999999940e+00 8.009800000000000253e-01 2.289499999999999869e-01 6.613599999999999479e-01 6.877799999999999470e-01 9.316800000000000637e+00 3.613230000000000164e+00 2.147250000000000103e+00 1.913829999999999920e+00 4.389990000000000059e+00 2.757210000000000161e+00 8.323079999999999146e+00 2.228769999999999918e+00 2.215100000000000069e+00 5.019389999999999574e+00 1.701729999999999965e+00 1.846079999999999943e+00 7.715250000000000163e+00 3.135050000000000114e+00 1.373439999999999994e+00 9.602180000000000604e+00 1.453170000000000073e+00 2.888349999999999973e+00 2.201810000000000045e+00 6.729100000000000081e-01 2.573949999999999960e+00 1.716890000000000072e+01 3.435820000000000096e+00 3.922100000000000031e-01 3.862729999999999997e+00 4.288990000000000080e+00 1.842119999999999980e+00 1.180049999999999955e+01 3.288089999999999957e+00 4.733600000000000030e-01 6.468650000000000233e+00
4.310469999999999580e+00 1.662430000000000074e+00 3.211009999999999920e+00 5.220069999999999766e+00 1.731199999999999961e-01 7.536959999999999660e+00 3.399300000000000099e-01 3.651839999999999975e+00 4.905840000000000423e+00 2.028000000000000025e+00 1.636060000000000070e+00 4.975109999999999921e+00 5.013000000000000095e-02 2.912889999999999979e+00 1.626179999999999959e+00 3.981170000000000098e+00 2.076600000000000001e+00 6.423600000000000421e+00 2.251290000000000013e+00 9.217600000000000238e-01 1.165179999999999971e+01 1.029470000000000107e+00 3.591799999999999993e-01 9.448629999999999640e+00 3.082710000000000061e+00 3.605550000000000033e+00 4.075730000000000075e+00 3.925250000000000128e+00 3.363090000000000135e+00 1.057639999999999958e+01 4.880259999999999820e+00 2.058419999999999916e+00 8.835309999999999775e+00 1.826650000000000107e+00 2.207279999999999909e+00 2.819350000000000023e+00 3.301299999999999901e+00 2.648690000000000211e+00 1.137690000000000090e+00 2.018699999999999939e+00 3.320860000000000145e+00 1.650179999999999936e+01 2.633430000000000160e+00 3.004299999999999748e-01 7.531640000000000335e+00 1.219880000000000075e+00 2.122459999999999791e+00 7.143860000000000099e+00
8.258299999999999530e-01 1.676779999999999937e+00 1.778640000000000043e+01 1.170000000000000033e-02 2.953590000000000160e+00 2.613459999999999894e+00 3.355989999999999807e+00 2.438769999999999882e+00 5.919459999999999944e+00 2.537939999999999863e+00 5.687200000000000033e-01 6.947259999999999991e+00 4.932719999999999771e+00 4.980600000000000027e-01 8.184250000000000469e+00 1.832559999999999967e+00 2.472269999999999968e+00 8.428299999999999681e-01 4.029569999999999652e+00 7.933999999999999941e-01 4.234020000000000117e+00 4.748630000000000351e+00 3.115899999999999892e+00 3.631599999999999828e-01 1.505799999999999916e-01 2.404609999999999914e+00 6.664419999999999789e+00 3.305419999999999803e+00 2.161509999999999820e+00 1.604810000000000159e+01 4.779300000000000215e-01 2.630069999999999908e+00 9.579340000000000188e+00 2.820770000000000000e+00 2.218679999999999986e+00 8.946320000000000050e+00 3.501630000000000020e+00 1.315779999999999950e+00 1.839290000000000092e+01 3.973129999999999828e+00 4.405700000000000172e-01 9.913080000000000780e+00 1.706639999999999935e+00 6.120400000000000285e-01 1.078369999999999962e+01 1.899370000000000003e+00 1.701270000000000060e+00 4.028900000000000148e+00
4.096709999999999852e+00 2.534100000000000019e+00 3.749340000000000117e+00 1.574940000000000007e+00 3.192260000000000097e+00 1.573680000000000057e+01 3.470689999999999831e+00 5.958400000000000363e-01 5.015139999999999709e+00 4.635399999999999743e+00 1.775260000000000060e+00 1.572850000000000037e+01 4.363279999999999603e+00 1.211570000000000036e+00 7.289970000000000283e+00 2.317070000000000185e+00 8.418400000000000327e-01 1.405739999999999945e+01 1.507730000000000015e+00 2.048960000000000115e+00 3.586430000000000007e+00 2.508669999999999956e+00 2.406820000000000181e+00 1.286800000000000033e+01 1.338100000000000067e+00 1.785200000000000120e-01 9.820669999999999789e+00 4.316200000000000259e+00 1.301090000000000080e+00 2.047149999999999803e+00 5.242799999999999683e-01 2.328600000000000114e-01 4.159000000000000197e-02 1.954169999999999963e+00 1.614319999999999977e+00 7.617510000000000225e+00 1.786620000000000097e+00 3.476600000000000246e-01 1.839790000000000036e+00 3.945460000000000189e+00 3.206850000000000200e+00 9.022710000000000008e+00 9.952600000000000335e-01 6.319700000000000317e-01 5.483089999999999797e+00 3.144680000000000142e+00 1.438749999999999973e+00 1.074680000000000035e+01
3.900500000000000078e-01 1.481119999999999992e+00 2.564220000000000166e+00 3.124919999999999920e+00 6.476399999999999935e-01 3.121449999999999836e+00 1.658279999999999976e+00 6.552499999999999991e-01 4.673200000000000132e-01 3.312990000000000101e+00 1.196309999999999985e+00 6.430410000000000181e+00 1.075069999999999970e+00 5.851199999999999735e-01 4.482140000000000235e+00 2.127019999999999911e+00 2.672480000000000189e+00 2.035969999999999835e+00 2.648530000000000051e+00 2.404549999999999965e+00 4.561149999999999594e+00 5.151400000000000423e-01 3.142459999999999809e+00 1.782849999999999824e+01 5.038030000000000008e+00 2.427700000000000191e+00 5.219990000000000130e+00 1.222120000000000095e+00 2.453019999999999978e+00 7.205940000000000012e+00 1.536019999999999941e+00 2.172089999999999854e+00 9.862859999999999516e+00 2.089300000000000157e+00 9.150899999999999590e-01 1.634700000000000131e+01 4.017249999999999766e+00 6.513200000000000101e-01 9.014400000000000190e-01 4.056639999999999802e+00 1.992590000000000083e+00 9.715329999999999799e+00 2.690090000000000092e+00 4.733499999999999930e-01 8.899190000000000822e+00 2.415499999999999869e-01 6.962800000000000100e-01 8.121650000000000702e+00
4.806680000000000064e+00 3.320770000000000000e+00 1.567450000000000010e+00 2.353549999999999809e+00 1.883869999999999933e+00 7.400000000000000355e+00 4.263810000000000322e+00 2.569640000000000146e+00 8.527889999999999304e+00 4.492070000000000007e+00 1.101429999999999909e+00 3.919680000000000053e+00 4.608730000000000437e+00 8.879200000000000426e-01 6.821699999999999875e+00 4.820099999999999940e-01 2.954639999999999933e+00 3.814770000000000216e+00 2.489199999999999857e+00 9.034799999999999498e-01 2.598019999999999996e+00 4.028419999999999668e+00 5.530100000000000016e-01 1.025549999999999962e+01 5.152029999999999887e+00 2.934050000000000047e+00 5.803740000000000343e+00 3.436780000000000168e+00 3.204839999999999911e+00 4.450210000000000221e+00 5.220069999999999766e+00 3.369660000000000100e+00 1.654830000000000112e+01 6.255899999999999794e-01 1.028880000000000017e+00 6.166099999999999914e-01 3.220439999999999969e+00 7.651799999999999713e-01 3.489099999999999979e-01 1.848610000000000086e+00 3.035759999999999792e+00 1.343609999999999971e+00 1.916959999999999997e+00 1.006979999999999986e+00 4.840390000000000192e+00 4.495680000000000121e+00 3.450540000000000163e+00 1.222710000000000008e+01
3.793410000000000171e+00 2.852770000000000028e+00 2.606679999999999886e+00 3.576340000000000074e+00 5.824799999999999978e-01 6.975469999999999615e+00 1.273819999999999952e+00 2.994299999999999962e+00 3.115169999999999995e+00 1.153340000000000032e+00 2.669290000000000163e+00 7.504809999999999981e+00 3.661200000000000010e-01 3.447519999999999918e+00 6.561299999999999910e-01 2.756759999999999877e+00 1.305560000000000054e+00 4.317040000000000433e+00 5.157099999999999795e+00 9.646500000000000075e-01 3.191870000000000207e+00 5.121929999999999872e+00 2.138930000000000220e+00 5.834340000000000082e+00 4.375609999999999999e+00 1.309059999999999890e+00 8.982599999999999474e-01 1.339329999999999909e+00 1.282070000000000043e+00 1.648969999999999914e+01 7.533499999999999641e-01 2.544500000000000095e-01 1.431859999999999999e+01 5.220640000000000391e+00 3.126700000000000035e-01 8.543390000000000484e+00 1.430649999999999977e+00 1.832399999999999862e-01 5.548099999999999810e+00 1.838870000000000005e+00 1.111429999999999918e+00 1.502750000000000030e+00 2.840559999999999974e+00 3.005980000000000096e+00 5.154100000000000348e-01 4.569999999999999757e-02 1.221200000000000063e+00 1.185479999999999912e+01