5.901070000000000482e-01 -1.363942999999999905e+00 8.601180000000000492e-01 -8.836370000000000058e-01 3.091189999999999771e-01 2.235290000000000055e-01 -4.093000000000000110e-02 -3.782400000000000345e-02 4.635600000000000137e-02 1.471169999999999978e-01 -5.872399999999999842e-02 -4.931539999999999813e-01 -1.384255999999999931e+00 -3.406417999999999946e+00 7.021910000000000096e-01 9.984359999999999902e-01 1.179081999999999963e+00 -1.251624000000000070e+00 -2.034905999999999882e+00 2.723395000000000010e+00 9.928909999999999680e-01 -4.689470000000000027e-01 -6.746999999999999664e-01 -3.752849999999999797e-01 -1.398530000000000051e-01 4.310390000000000055e-01 4.107520000000000060e-01 -3.480599999999999805e-01 2.856009999999999938e-01 1.570529999999999982e-01 -1.371499999999999976e-02 -1.974140000000000061e-01 8.206900000000000306e-02 3.393418000000000045e+00 -1.206310000000000021e-01 -1.084143999999999997e+00 -5.012379999999999614e-01 4.586290000000000089e-01 -6.960299999999999820e-02 9.852340000000000542e-01 9.149059999999999970e-01 -8.239619999999999722e-01 -7.547530000000000072e-01 -3.656579999999999830e-01 2.910940000000000194e-01 4.559819999999999984e-01 -7.645899999999999919e-02 3.317189999999999861e-01
1.303004000000000051e+00 -2.759599999999999900e-02 6.634020000000000472e-01 -6.930260000000000309e-01 3.782920000000000171e-01 4.934399999999999897e-01 -1.869949999999999946e-01 4.823669999999999902e-01 -5.934350000000000458e-01 -3.803170000000000162e-01 6.617480000000000029e-01 -2.188299999999999967e-02 7.930700000000000249e-02 1.317669999999999952e-01 -2.449000000000000135e-02 1.054502999999999968e+00 -6.714099999999999513e-01 6.044410000000000061e-01 -9.395099999999999563e-01 1.385490000000000055e-01 1.234839999999999965e-01 2.144614999999999938e+00 -6.435309999999999642e-01 -1.999390000000000056e-01 5.158000000000000258e-03 2.665989999999999749e-01 -7.215499999999999692e-02 3.130149999999999877e-01 1.624799999999999855e-02 -8.424340000000000162e-01 -1.019671999999999912e+00 -4.527570000000000205e-01 -1.838930000000000009e-01 4.045790000000000219e-01 1.693199999999999983e-01 -8.258940000000000170e-01 -1.797759000000000107e+00 1.709769999999999901e-01 -6.357999999999999936e-03 -3.303269999999999817e-01 -1.469969999999999888e-01 -2.801819999999999866e-01 2.479500000000000037e-01 -8.869900000000000007e-02 3.906229999999999980e-01 -2.045250000000000123e-01 -3.848779999999999979e-01 7.752729999999999899e-01
-6.347779999999999534e-01 1.183314999999999895e+00 -6.143809999999999549e-01 -9.091390000000000304e-01 2.079235000000000166e+00 -2.153090000000000004e-01 1.115349999999999953e-01 3.721349999999999936e-01 -5.961775000000000269e+00 6.994179999999999842e-01 -2.326824999999999921e+00 5.689872000000000263e+00 4.840849999999999875e-01 -3.619959999999999845e-01 -2.339459999999999873e-01 2.289910000000000001e-01 2.229800000000000115e-01 -2.478100000000000025e-01 -1.570469999999999922e-01 3.599709999999999854e-01 -3.858199999999999824e-02 -5.493259999999999810e-01 -2.070929999999999993e-01 -1.896730000000000083e-01 -6.199000000000000066e-01 -6.505830000000000224e-01 -9.744969999999999466e-01 1.320810000000000040e-01 1.075720000000000010e-01 9.699630000000000196e-01 1.740490000000000093e-01 2.416639999999999899e-01 -6.531240000000000379e-01 1.552796000000000065e+00 -1.528156999999999988e+00 2.667860000000000231e-01 4.490600000000000147e-02 3.519399999999999751e-01 1.200927000000000078e+00 -8.978019999999999889e-01 -3.687659999999999827e-01 -8.807999999999999857e-03 4.509799999999999920e-01 5.445630000000000193e-01 7.185009999999999453e-01 -1.108510000000000051e-01 -1.995600000000000152e-02 2.918560000000000043e-01
-7.237899999999999889e-02 -2.943160000000000220e-01 1.363555000000000073e+00 2.251128000000000018e+00 9.729680000000000550e-01 -8.421469999999999789e-01 -6.130860000000000198e-01 -1.639569999999999916e-01 -5.814099999999999824e-01 5.397799999999999820e-02 1.458240000000000092e-01 -4.381081000000000003e+00 -8.204909999999999703e-01 2.156740999999999797e+00 2.604199999999999848e-01 -2.442759999999999931e-01 4.470470000000000277e-01 2.407849999999999990e-01 -7.339890000000000025e-01 6.481000000000000649e-02 1.164499999999999980e-01 1.379809999999999925e-01 3.345440000000000080e-01 1.445111999999999952e+00 4.524159999999999848e-01 -1.161283999999999983e+00 5.344609999999999639e-01 1.174598000000000031e+00 -4.533309999999999840e-01 -8.112380000000000146e-01 -1.649027999999999938e+00 -1.005211999999999994e+00 -1.033916999999999975e+00 -6.709779999999999633e-01 -5.003530000000000477e-01 2.663110000000000199e-01 -3.441000000000000048e-03 1.020350000000000007e-01 -1.675907000000000036e+00 4.962190000000000212e-01 5.200899999999999967e-02 9.009359999999999591e-01 4.635130000000000083e-01 2.938699999999999993e-02 4.107056000000000040e+00 -2.221640000000000004e-01 -7.269130000000000313e-01 9.061600000000000210e-02
1.974460000000000104e-01 -4.069829999999999837e-01 -5.155520000000000103e-01 1.268579999999999985e-01 9.482599999999999363e-02 7.249060000000000503e-01 1.010531000000000068e+00 -1.704072999999999949e+00 -6.074730000000000407e-01 -6.788500000000000090e-02 1.506599999999999953e-02 -8.541840000000000543e-01 -1.646539999999999948e-01 3.417959999999999887e-01 7.621699999999999309e-02 -4.489710000000000090e-01 3.403249999999999886e-01 -9.261500000000000288e-02 -1.562400000000000073e-02 6.608469999999999622e-01 3.842600000000000182e-02 8.134099999999999664e-02 -1.528691000000000022e+00 8.774720000000000297e-01 -5.946900000000000519e-01 4.958520000000000150e-01 -3.488249999999999962e-01 -8.143569999999999975e-01 2.050384999999999902e+00 6.653699999999999892e-02 3.238249999999999740e-01 -3.615269999999999873e-01 8.379100000000000437e-02 6.163560000000000150e-01 3.020220000000000127e-01 -6.789499999999999702e-02 -1.354700000000000071e-01 1.137542000000000053e+00 -4.695440000000000169e-01 2.922800000000000051e-02 -1.324859999999999927e-01 9.514040000000000274e-01 1.264290000000000136e-01 -4.561149999999999927e-01 -6.350000000000000089e-02 -2.703650000000000220e-01 -8.487850000000000117e-01 2.008359999999999868e-01
-3.250299999999999717e-02 -9.168779999999999708e-01 4.470910000000000162e-01 -1.672892999999999963e+00 5.344659999999999966e-01 8.371899999999999897e-01 -4.542039999999999966e-01 -2.075400000000000161e-02 -1.245509999999999950e-01 2.233660000000000090e-01 -9.759750000000000369e-01 -5.907820000000000293e-01 1.104190000000000033e-01 -3.384550000000000058e-01 -1.783767000000000102e+00 -3.881099999999999828e-02 8.315789999999999571e-01 1.123027999999999915e+00 4.452590000000000159e-01 -1.789010000000000045e-01 1.246931999999999929e+00 -8.126700000000000590e-02 3.170970000000000177e-01 8.931500000000000550e-02 -1.360919999999999908e-01 9.417799999999999783e-02 2.366060000000000108e-01 1.548778999999999906e+00 7.162509999999999710e-01 -3.644510000000000249e-01 9.713690000000000380e-01 -1.087820000000000037e-01 -3.275710000000000011e-01 -1.230404999999999971e+00 5.747430000000000039e-01 -4.851239999999999997e-01 -3.447540000000000049e-01 -2.636689999999999867e-01 3.741400000000000281e-02 2.454620000000000135e-01 -1.228800000000000031e-01 -9.799639999999999462e-01 3.687380000000000102e-01 -2.998489999999999767e-01 3.366179999999999728e-01 7.753699999999999481e-02 1.578279999999999961e-01 3.020169999999999799e-01
1.296645000000000048e+00 4.776099999999999790e-02 4.399799999999999822e-01 3.985480000000000134e-01 1.210601000000000038e+00 6.834489999999999732e-01 -3.011469999999999980e-01 -4.467240000000000100e-01 -6.939699999999999758e-01 1.116339999999999971e-01 8.364249999999999741e-01 -2.575029999999999819e-01 5.298990000000000089e-01 2.990889999999999938e-01 -3.070999999999999945e-03 5.917090000000000405e-01 -7.382009999999999961e-01 -5.028550000000000075e+00 5.173309999999999853e-01 -3.118290000000000228e-01 -3.115899999999999781e-01 -4.940729999999999844e-01 -5.941689999999999472e-01 2.215380000000000127e-01 -9.553110000000000213e-01 -4.755759999999999987e-01 3.430309999999999748e-01 9.675300000000000566e-02 2.013810000000000044e-01 -8.649240000000000261e-01 2.046860000000000068e-01 5.348779999999999646e-01 -3.768190000000000150e-01 -5.457809999999999606e-01 -1.892210000000000003e-01 5.500315999999999761e+00 1.737500000000000155e-02 -1.227789999999999992e-01 9.513679999999999914e-01 -3.219819999999999904e-01 -1.195309999999999984e-01 1.008150000000000018e-01 -2.000000000000000096e-04 -1.121699999999999919e+00 -1.022760000000000058e-01 -1.146085000000000020e+00 9.895939999999999737e-01 -6.017930000000000224e-01
5.025300000000000322e-01 -4.920399999999999774e-02 -6.150290000000000479e-01 -2.075529999999999875e-01 -9.741750000000000131e-01 7.429750000000000520e-01 -6.365380000000000482e-01 -8.516519999999999646e-01 -3.325069999999999970e-01 -1.338749999999999940e-01 -5.529060000000000086e-01 5.389340000000000241e-01 1.472286999999999901e+00 -2.043505000000000127e+00 -8.075899999999999745e-02 -7.969169999999999865e-01 4.481319999999999748e-01 -2.604239999999999888e-01 2.775190000000000157e-01 4.911900000000000155e-01 1.992530000000000134e-01 -1.166289999999999966e-01 -3.085089999999999777e-01 -4.343799999999999883e-01 -8.159700000000000286e-02 6.885869999999999491e-01 -7.023730000000000251e-01 -3.558680000000000176e-01 7.818580000000000529e-01 8.487440000000000540e-01 -1.994489999999999874e-01 2.830099999999999838e-01 -3.554829999999999934e-01 5.077999999999999875e-02 6.586410000000000320e-01 1.419870000000000021e-01 1.502218999999999971e+00 -1.262490000000000001e-01 1.012000000000000096e-03 9.157600000000000462e-02 4.171810000000000240e-01 1.061544999999999961e+00 -5.323609999999999731e-01 1.817455999999999960e+00 -4.683320000000000261e-01 -8.361250000000000071e-01 -6.798539999999999583e-01 -2.851659999999999751e-01
1.152122000000000090e+00 7.924879999999999702e-01 -4.764299999999999785e-02 -1.109296999999999978e+00 8.683599999999999652e-02 -1.916360000000000008e-01 -3.689200000000000257e-01 -4.129189999999999805e-01 -4.219910000000000050e-01 -1.583589999999999998e-01 -4.146279999999999966e-01 6.374859999999999971e-01 4.170710000000000250e-01 2.211039999999999950e-01 4.343251000000000417e+00 6.750420000000000309e-01 3.653739999999999766e-01 -1.058491999999999988e+00 -9.053579999999999961e-01 1.259188999999999892e+00 1.610805999999999960e+00 5.690539999999999488e-01 -5.003159999999999830e-01 -3.576039999999999774e-01 5.329190000000000316e-01 -1.695879999999999888e-01 9.818879999999999830e-01 -8.090800000000000214e-01 -5.798450000000000548e-01 1.076000000000000012e-01 -4.757120000000000237e-01 2.348280000000000090e-01 6.164800000000000141e-02 1.783438000000000079e+00 -1.051431999999999922e+00 -5.716649999999999787e-01 -9.633770000000000389e-01 5.061379999999999768e-01 -5.602470000000000505e-01 -4.937179999999999902e-01 8.664260000000000295e-01 -6.062290000000000179e-01 -6.830300000000000260e-02 -2.927199999999999802e-01 -3.985571000000000197e+00 2.224760000000000071e-01 -9.109340000000000215e-01 5.839899999999999952e-02
-1.073209999999999997e-01 -9.109300000000000175e-01 5.736179999999999612e-01 -5.730539999999999523e-01 8.482009999999999827e-01 4.883159999999999723e-01 -8.483709999999999862e-01 -4.680210000000000203e-01 3.312160000000000104e-01 -8.878190000000000248e-01 -1.113091999999999970e+00 -1.120878000000000041e+00 -7.281400000000000095e-01 -3.150290000000000035e-01 -1.346424999999999983e+00 -6.422499999999999876e-01 7.776110000000000522e-01 7.939490000000000158e-01 -7.993999999999999717e-02 -2.534779999999999811e-01 5.699779999999999847e-01 -2.537220000000000031e-01 8.313899999999999624e-01 -1.796810000000000074e-01 1.983779999999999988e-01 6.340099999999999625e-01 6.957299999999999596e-02 1.122487000000000013e+00 -9.056200000000000361e-02 1.473430000000000017e-01 1.527876000000000012e+00 -1.370389999999999942e-01 -1.526950999999999947e+00 -5.485219999999999541e-01 6.137970000000000370e-01 5.670330000000000092e-01 -1.459300000000000042e-01 2.638909999999999867e-01 6.779659999999999576e-01 2.426619999999999888e-01 -1.592320000000000124e-01 -9.864220000000000210e-01 1.145180000000000087e+00 -7.084300000000000319e-02 2.184619999999999895e-01 5.784859999999999447e-01 -4.506729999999999903e-01 7.229039999999999910e-01
4.474139999999999784e-01 -3.129930000000000212e-01 -6.403419999999999668e-01 -6.204799999999999899e-02 -5.083769999999999678e-01 7.613600000000000367e-01 -5.331339999999999968e-01 -1.558624999999999927e+00 -9.603599999999999914e-01 -7.947500000000000397e-02 -2.248469999999999913e-01 -4.447999999999999732e-01 7.934489999999999599e-01 -9.612110000000000376e-01 -2.049100000000000088e-01 -8.717540000000000289e-01 5.129470000000000418e-01 4.178599999999999676e-02 1.086199999999999943e-01 7.133059999999999956e-01 1.185630000000000017e-01 7.318800000000000305e-02 -9.687510000000000288e-01 5.819299999999999473e-01 -3.612810000000000188e-01 7.801930000000000254e-01 -6.218500000000000139e-01 -1.004739999999999939e-01 2.054511000000000198e+00 7.191999999999999504e-01 -6.154699999999999754e-02 -1.972520000000000107e-01 -2.546800000000000105e-02 1.623340000000000061e-01 4.710119999999999862e-01 2.993300000000000127e-02 9.875410000000000021e-01 1.834040000000000115e-01 -1.282119999999999926e-01 1.117270000000000069e-01 1.932439999999999991e-01 1.109790000000000054e+00 8.470000000000000098e-03 7.942420000000000035e-01 -3.976469999999999727e-01 -6.230310000000000015e-01 -9.708040000000000003e-01 6.102899999999999991e-02
-3.981319999999999859e-01 -5.324689999999999701e-01 7.017240000000000144e-01 5.052029999999999577e-01 8.374859999999999527e-01 6.697599999999999387e-02 1.501500000000000057e-02 -3.985899999999999999e-01 5.289699999999999958e-02 -1.217734000000000094e+00 -1.072451000000000043e+00 -8.453129999999999811e-01 -1.268601000000000090e+00 -2.581959999999999811e-01 -3.182760000000000034e-01 -7.161250000000000115e-01 4.979599999999999999e-02 2.778579999999999939e-01 -4.735380000000000145e-01 -1.447680000000000078e-01 -2.332289999999999919e-01 8.229999999999999469e-03 7.498909999999999743e-01 -3.229890000000000261e-01 6.945470000000000255e-01 7.563189999999999635e-01 -3.478089999999999793e-01 2.800739999999999896e-01 -5.793869999999999854e-01 5.501660000000000439e-01 7.769730000000000247e-01 -2.085960000000000036e-01 -1.811765000000000070e+00 -9.127399999999999403e-02 4.486269999999999980e-01 1.555665999999999993e+00 -1.626130000000000075e-01 5.891079999999999650e-01 7.379149999999999876e-01 2.987650000000000028e-01 -1.922220000000000040e-01 -8.373810000000000420e-01 9.886829999999999785e-01 3.362240000000000228e-01 -1.048049999999999954e-01 7.605250000000000066e-01 -3.807710000000000261e-01 8.783659999999999801e-01
