1.552610000000000046e+00 9.181599999999999762e-01 1.676679999999999993e+01 2.404580000000000162e+00 2.507400000000000073e+00 5.338460000000000427e+00 9.161299999999999999e-01 2.913400000000000212e+00 3.089999999999999865e-03 3.138549999999999951e+00 2.999929999999999986e+00 1.613639999999999830e+01 3.871820000000000039e+00 6.495100000000000318e-01 5.580600000000000005e-01 3.255840000000000067e+00 3.180399999999999894e-01 6.529770000000000074e+00 3.231310000000000127e+00 2.044499999999999929e-01 3.962410000000000210e+00 3.308030000000000026e+00 4.168840000000000323e+00 9.204789999999999139e+00 1.176539999999999919e+00 1.697200000000000097e-01 5.510180000000000078e+00 3.754000000000000115e-01 2.213620000000000143e+00 4.082150000000000389e+00 2.059769999999999879e+00 2.034370000000000012e+00 8.707979999999999166e+00 8.402699999999999614e-01 7.692999999999999838e-02 2.608350000000000168e+00 2.817320000000000046e+00 3.032910000000000217e+00 1.144880000000000031e+01 3.413889999999999869e+00 2.379989999999999828e+00 1.982969999999999899e+00 6.940300000000000358e-01 1.530700000000000116e-01 7.790910000000000224e+00 7.746000000000000107e-02 2.268530000000000157e+00 6.762909999999999755e+00
9.182399999999999451e-01 4.201190000000000424e+00 1.018200000000000038e+01 3.562559999999999949e+00 1.705600000000000005e+00 1.839219999999999899e+01 1.111830000000000096e+00 3.596300000000000052e-01 3.151629999999999932e+00 3.395939999999999959e+00 1.213459999999999983e+00 7.485769999999999591e+00 3.325460000000000083e+00 7.952099999999999724e-01 9.757389999999999119e+00 6.465999999999999526e-02 4.121330000000000382e+00 1.683449999999999847e+01 3.364829999999999988e+00 3.738319999999999865e+00 1.296130000000000004e+00 9.102099999999999635e-01 4.189490000000000158e+00 7.397590000000000110e+00 2.905740000000000212e+00 3.487439999999999873e+00 8.500149999999999650e+00 3.823879999999999946e+00 1.621099999999999985e+00 4.862090000000000245e+00 9.194299999999999695e-01 2.716019999999999879e+00 2.083650000000000002e+00 1.403620000000000090e+00 1.103900000000000020e-01 5.940199999999999925e-01 3.337180000000000035e+00 1.667440000000000033e+00 2.209179999999999922e+00 1.501339999999999897e+00 2.354480000000000128e+00 5.514020000000000366e+00 3.458819999999999784e+00 3.882909999999999862e+00 4.045580000000000176e+00 6.832300000000000040e-01 2.037999999999999812e+00 8.595399999999999707e+00
1.646349999999999980e+00 1.171580000000000066e+00 1.506060000000000088e+01 3.493250000000000188e+00 3.996980000000000199e+00 8.107950000000000657e+00 5.938299999999999690e-01 2.097459999999999880e+00 1.940660000000000052e+00 1.729139999999999899e+00 3.000729999999999897e+00 8.829280000000000683e+00 3.086570000000000036e+00 9.014799999999999480e-01 4.380110000000000170e+00 8.069399999999999906e-01 4.208879999999999733e+00 2.883399999999999963e+00 2.875469999999999970e+00 7.062800000000000189e-01 1.064289999999999914e+01 3.231450000000000156e+00 3.089900000000000091e+00 3.618279999999999941e+00 3.466699999999999782e-01 4.260410000000000252e+00 6.119790000000000063e+00 2.973479999999999901e+00 1.735800000000000010e+00 6.509759999999999991e+00 1.479719999999999924e+00 3.874699999999999811e-01 1.207939999999999969e+01 2.479750000000000121e+00 8.951799999999999757e-01 1.338410000000000100e+00 9.949999999999999956e-01 2.092189999999999994e+00 4.299129999999999896e+00 3.861660000000000093e+00 2.555509999999999948e+00 9.930690000000000239e+00 1.354870000000000019e+00 9.065699999999999870e-01 9.429249999999999687e+00 2.193400000000000016e+00 3.374659999999999993e+00 3.968700000000000006e-01
3.364650000000000141e+00 3.911859999999999893e+00 2.317369999999999930e+00 3.544540000000000024e+00 1.612119999999999997e+00 1.849759999999999849e+01 4.165600000000000414e+00 1.652579999999999938e+00 2.205550000000000122e+00 5.724799999999999889e-01 3.820790000000000131e+00 6.630709999999999660e+00 3.599359999999999893e+00 1.087620000000000031e+00 6.420980000000000132e+00 7.505399999999999849e-01 1.662900000000000045e+00 5.116620000000000168e+00 4.291800000000000281e+00 1.738320000000000087e+00 9.816110000000000113e+00 2.454950000000000188e+00 2.555969999999999853e+00 7.681879999999999598e+00 1.076810000000000045e+00 4.524000000000000243e-01 8.604380000000000805e+00 3.031210000000000182e+00 3.671829999999999927e+00 5.050679999999999836e+00 3.725439999999999863e+00 3.435560000000000169e+00 5.062100000000000488e-01 5.517300000000000537e-01 3.996939999999999937e+00 3.986169999999999991e+00 1.241870000000000029e+00 3.383989999999999831e+00 1.584089999999999998e+00 2.536989999999999856e+00 1.674190000000000067e+00 3.676940000000000097e+00 2.208260000000000112e+00 1.157690000000000108e+00 8.217400000000000260e-01 3.633230000000000182e+00 3.788559999999999928e+00 9.259389999999999787e+00
1.951279999999999903e+00 3.774199999999999999e+00 1.070270000000000055e+00 3.014839999999999964e+00 2.348419999999999952e+00 5.651089999999999947e+00 1.530100000000000071e-01 2.153999999999999915e+00 1.064799999999999969e+01 4.329189999999999650e+00 1.263799999999999923e-01 6.388690000000000424e+00 3.987999999999999989e+00 4.062540000000000262e+00 9.446519999999999584e+00 1.585480000000000000e+00 5.821699999999999653e-01 9.146789999999999310e+00 1.720180000000000042e+00 2.629420000000000091e+00 8.197430000000000661e+00 2.136249999999999982e+00 1.353800000000000003e-01 6.712180000000000035e+00 -2.219000000000000139e-02 5.857499999999999929e-01 3.584159999999999791e+00 2.603779999999999983e+00 1.678399999999999892e+00 1.979899999999999993e-01 4.237790000000000390e+00 2.054629999999999956e+00 8.033530000000000726e+00 4.281310000000000393e+00 3.359589999999999854e+00 1.710999999999999943e+01 3.868090000000000028e+00 3.029529999999999834e+00 1.852360000000000007e+00 2.245859999999999967e+00 2.057100000000000040e-01 4.008110000000000284e+00 1.786370000000000013e+00 -9.496999999999999886e-02 1.531830000000000069e+01 1.256320000000000103e+00 2.037069999999999936e+00 2.589059999999999917e+00
3.020070000000000032e+00 4.023499999999999854e-01 8.815870000000000317e+00 1.381559999999999899e+00 1.078859999999999930e+00 1.480649999999999977e+01 1.828060000000000018e+00 5.935599999999999765e-01 3.807859999999999800e+00 3.385860000000000092e+00 2.584950000000000081e+00 7.431009999999999671e+00 3.241480000000000139e+00 8.041800000000000059e-01 5.536260000000000403e+00 3.642739999999999867e+00 3.428549999999999986e+00 1.698019999999999996e+01 2.928490000000000038e+00 7.259999999999999787e-02 1.347199999999999953e+00 4.952799999999999980e-01 4.360700000000000132e-01 7.054990000000000094e+00 8.639599999999999502e-01 1.824500000000000011e+00 9.453530000000000655e+00 3.702040000000000219e+00 2.554129999999999789e+00 4.053939999999999877e+00 1.109650000000000025e+00 2.254789999999999850e+00 2.249010000000000176e+00 7.267200000000000326e-01 2.952479999999999993e+00 5.573879999999999946e+00 4.355299999999999727e-01 3.666690000000000005e+00 1.077640000000000065e+01 2.908790000000000209e+00 2.213220000000000187e+00 1.010940000000000083e+01 1.038049999999999917e+00 1.174879999999999924e+00 1.791250000000000142e+01 3.823500000000000121e+00 2.044459999999999944e+00 3.477999999999999980e-01
4.245190000000000019e+00 3.916420000000000012e+00 8.860709999999999198e+00 3.146329999999999849e+00 1.291160000000000085e+00 4.081249999999999822e+00 2.204330000000000123e+00 4.320380000000000109e+00 7.795279999999999987e+00 2.666249999999999787e+00 1.478129999999999944e+00 1.055579999999999963e+01 7.508799999999999919e-01 3.432770000000000099e+00 1.032000000000000028e+00 3.330480000000000107e+00 7.643999999999999406e-02 1.334060000000000024e+00 4.630000000000000226e-01 1.692299999999999915e+00 4.916019999999999612e+00 6.243999999999999551e-01 8.475000000000000311e-01 2.976220000000000088e+00 1.295849999999999946e+00 2.129630000000000134e+00 6.817840000000000344e+00 1.862400000000000055e+00 3.515829999999999789e+00 4.932459999999999845e+00 4.033269999999999911e+00 2.827580000000000204e+00 1.828069999999999951e+01 4.172369999999999912e+00 3.414590000000000014e+00 3.688860000000000028e+00 9.337600000000000344e-01 9.056800000000000406e-01 4.617600000000000038e-01 2.259599999999999831e+00 1.879480000000000040e+00 2.011680000000000135e+00 3.579180000000000028e+00 1.866530000000000022e+00 8.151139999999999830e+00 3.995989999999999931e+00 3.822410000000000085e+00 6.512419999999999654e+00
1.845800000000000107e+00 1.692209999999999992e+00 2.617700000000000027e-01 4.534830000000000361e+00 3.835820000000000007e+00 1.863370000000000104e+01 1.929140000000000077e+00 3.729760000000000186e+00 1.445400000000000018e-01 1.669939999999999980e+00 1.507160000000000055e+00 4.216929999999999623e+00 1.775660000000000016e+00 1.315199999999999925e+00 6.614119999999999777e+00 2.193900000000000183e+00 9.320699999999999541e-01 8.921939999999999316e+00 3.379599999999999937e+00 3.411610000000000031e+00 1.025109999999999921e+01 1.194299999999999945e-01 4.357020000000000337e+00 3.896290000000000031e+00 4.454930000000000057e+00 1.829569999999999919e+00 8.673220000000000596e+00 3.448789999999999800e+00 3.959659999999999958e+00 8.152950000000000585e+00 4.557129999999999903e+00 5.156100000000000128e-01 1.181110000000000104e+00 2.635899999999999910e+00 3.874190000000000023e+00 3.144600000000000062e+00 3.576049999999999951e+00 4.302109999999999879e+00 5.830359999999999765e+00 3.883859999999999868e+00 1.493659999999999988e+00 1.819409999999999883e+01 1.427410000000000068e+00 3.648219999999999796e+00 5.726519999999999833e+00 3.964879999999999960e+00 1.061739999999999906e+00 1.065680000000000049e+01
4.142079999999999984e+00 2.044010000000000105e+00 8.961919999999999220e+00 2.402649999999999952e+00 3.038860000000000117e+00 1.864530000000000021e+00 3.410930000000000017e+00 8.204000000000000181e-02 5.586899999999999977e+00 3.300999999999999768e-02 2.416889999999999983e+00 5.747150000000000425e+00 2.043860000000000010e+00 1.680539999999999923e+00 7.325840000000000352e+00 4.313579999999999970e+00 3.486199999999999855e-01 1.833660000000000068e+01 1.537330000000000085e+00 6.056700000000000417e-01 1.980280000000000040e+00 3.204899999999999860e+00 4.072070000000000078e+00 8.240759999999999863e+00 2.060599999999999987e+00 2.380220000000000002e+00 4.037869999999999848e+00 3.861489999999999867e+00 5.964399999999999702e-01 2.977390000000000203e+00 1.072219999999999951e+00 1.135899999999999965e-01 4.546009999999999884e+00 1.958799999999999986e-01 2.427740000000000009e+00 2.677599999999999980e-01 2.319729999999999848e+00 5.458699999999999664e-01 1.835719999999999885e+01 3.206499999999999906e-01 2.976240000000000219e+00 2.769620000000000193e+00 2.635330000000000172e+00 1.058689999999999909e+00 1.098690000000000033e+01 1.201240000000000085e+00 4.604379999999999917e+00 8.914619999999999322e+00
3.738490000000000091e+00 3.295469999999999899e+00 1.219309999999999938e+01 1.830540000000000056e+00 2.563140000000000196e+00 1.056410000000000071e+00 2.869689999999999852e+00 2.730319999999999858e+00 9.340230000000000032e+00 4.088129999999999598e+00 4.454649999999999999e+00 1.713909999999999911e+01 3.425629999999999953e+00 2.226859999999999840e+00 1.748519999999999897e+01 3.483700000000000130e-01 1.818449999999999900e+00 8.710210000000000008e+00 3.788110000000000088e+00 3.532600000000000184e-01 5.380550000000000388e+00 3.480230000000000157e+00 2.280510000000000037e+00 6.540930000000000355e+00 2.692660000000000053e+00 6.643900000000000361e-01 1.027500000000000036e+01 1.385590000000000099e+00 8.890799999999999814e-01 5.801230000000000331e+00 1.124970000000000026e+00 3.259939999999999838e+00 7.134739999999999860e+00 3.403010000000000090e+00 1.051260000000000083e+00 2.910600000000000076e+00 1.066159999999999997e+00 1.975740000000000052e+00 1.732140000000000057e+01 2.496770000000000156e+00 9.187300000000000466e-01 8.280709999999999127e+00 1.974660000000000082e+00 4.031469999999999665e+00 1.791550000000000153e+01 4.501170000000000115e+00 2.274999999999999939e-02 1.136710000000000109e+00
1.690809999999999924e+00 4.051999999999999602e+00 9.707940000000000680e+00 1.876209999999999933e+00 1.841229999999999922e+00 1.816019999999999968e+00 1.740490000000000093e+00 1.992809999999999970e+00 8.831630000000000535e+00 2.891830000000000123e+00 2.436739999999999906e+00 1.639260000000000161e+01 4.159519999999999662e+00 9.112900000000000444e-01 7.668770000000000309e+00 1.946949999999999958e+00 2.550100000000000144e-01 7.077600000000000335e+00 2.747599999999999820e+00 4.286900000000000155e+00 1.456070000000000064e+01 3.942509999999999959e+00 3.123559999999999892e+00 9.319649999999999324e+00 4.180119999999999614e+00 2.161010000000000097e+00 3.436360000000000081e+00 4.212970000000000326e+00 1.051900000000000057e-01 5.257769999999999833e+00 3.980750000000000011e+00 4.230080000000000062e+00 2.563470000000000137e+00 2.230630000000000113e+00 3.528290000000000148e+00 3.928129999999999900e+00 2.843850000000000211e+00 2.369679999999999787e+00 6.343910000000000160e+00 7.794799999999999507e-01 2.425060000000000215e+00 6.252500000000000391e+00 3.629970000000000141e+00 1.789730000000000043e+00 6.799100000000000144e-01 2.630539999999999878e+00 3.975070000000000103e+00 4.621100000000000207e-01
3.109360000000000124e+00 1.856759999999999966e+00 7.491700000000000026e-01 2.379539999999999988e+00 3.282820000000000071e+00 3.955659999999999954e+00 1.008499999999999952e-01 2.336329999999999796e+00 2.780229999999999979e+00 1.556969999999999965e+00 1.004650000000000043e+00 3.637599999999999945e+00 2.964420000000000055e+00 3.730529999999999902e+00 7.198640000000000150e+00 1.099550000000000027e+00 2.272250000000000103e+00 8.386910000000000309e+00 4.715900000000000092e-01 4.360299999999999621e+00 7.544760000000000133e+00 5.957000000000000073e-01 1.806580000000000075e+00 1.133999999999999939e-02 3.364129999999999843e+00 1.641040000000000054e+00 8.218030000000000612e+00 1.500420000000000087e+00 2.030780000000000030e+00 5.752010000000000289e+00 4.680649999999999977e+00 3.945500000000000007e+00 1.011970000000000036e+00 4.007170000000000343e+00 3.043399999999999994e-01 3.189900000000000180e+00 1.194999999999999951e-01 3.609680000000000000e+00 5.177270000000000039e+00 2.053539999999999921e+00 4.248120000000000118e+00 1.235160000000000036e+00 3.673909999999999787e+00 3.465030000000000054e+00 1.053490000000000038e+01 4.168319999999999581e+00 1.251149999999999984e+00 5.801610000000000156e+00
2.660860000000000003e+00 8.252500000000000391e-01 2.623240000000000016e+00 2.364100000000000090e+00 3.319310000000000205e+00 2.599959999999999827e+00 1.403350000000000097e+00 3.929499999999999993e+00 5.136169999999999902e+00 -1.275600000000000067e-01 2.443649999999999878e+00 1.750789999999999935e+01 2.581290000000000084e+00 2.695089999999999986e+00 6.881090000000000373e+00 6.810899999999999732e-01 1.325339999999999963e+00 6.299269999999999925e+00 3.540649999999999853e+00 4.532149999999999679e+00 5.075000000000000178e+00 1.580859999999999932e+00 3.383459999999999912e+00 9.399910000000000210e+00 3.566900000000000071e-01 1.690539999999999932e+00 3.992199999999999971e+00 8.040999999999999537e-02 4.841000000000000164e-02 2.625770000000000159e+00 4.555150000000000254e+00 2.017409999999999926e+00 1.135990000000000055e+00 1.023150000000000004e+00 1.249330000000000052e+00 8.397610000000000241e+00 3.193900000000000183e+00 4.276300000000000101e-01 8.042510000000000048e+00 4.185870000000000424e+00 4.174909999999999677e+00 1.895999999999999908e-01 3.702040000000000219e+00 2.800170000000000048e+00 9.738659999999999428e+00 2.607439999999999980e+00 1.915960000000000107e+00 4.588490000000000180e+00
2.249769999999999825e+00 3.760819999999999830e+00 1.658630000000000138e+01 2.394699999999999829e+00 4.378219999999999779e+00 9.550910000000000011e+00 2.004799999999999915e-01 3.118739999999999846e+00 8.863139999999999574e+00 1.176900000000000029e-01 8.689799999999999747e-01 7.635200000000000209e+00 3.951680000000000081e+00 3.051740000000000119e+00 1.449329999999999963e+01 3.515390000000000015e+00 3.926379999999999981e+00 2.843879999999999963e+00 3.201740000000000030e+00 4.022599999999999731e+00 5.124039999999999928e+00 1.496800000000000075e-01 1.843730000000000091e+00 4.758320000000000327e+00 3.506270000000000220e+00 2.403519999999999879e+00 1.040639999999999965e+01 2.766350000000000087e+00 1.540659999999999918e+00 1.743100000000000094e+01 2.922419999999999796e+00 1.421729999999999938e+00 1.715789999999999926e+00 1.397529999999999939e+00 2.918109999999999982e+00 1.954749999999999988e+00 1.144970000000000043e+00 3.865850000000000009e+00 4.118339999999999890e+00 8.042099999999999804e-01 9.863399999999999945e-01 1.207000000000000017e-01 3.125700000000000145e-01 1.246390000000000109e+00 1.643140000000000001e+01 2.403999999999999915e+00 1.933529999999999971e+00 7.824740000000000251e+00
3.793779999999999930e+00 3.255259999999999820e+00 1.034639999999999915e+01 2.248400000000000176e+00 7.463499999999999579e-01 7.524610000000000021e+00 2.134529999999999816e+00 3.350330000000000030e+00 1.822759999999999891e+01 4.670740000000000336e+00 3.736159999999999926e+00 1.641959999999999908e+01 1.422350000000000003e+00 2.803450000000000220e+00 5.593659999999999854e+00 3.315890000000000004e+00 3.663190000000000168e+00 4.397129999999999761e+00 4.228559999999999874e+00 3.042800000000000171e+00 1.894823999999999842e+01 3.257999999999999785e-01 2.620610000000000106e+00 2.792089999999999961e+00 7.651999999999999913e-01 2.878270000000000106e+00 8.072570000000000690e+00 6.232299999999999507e-01 6.865900000000000336e-01 4.093499999999999694e+00 5.475200000000000067e-01 5.342999999999999972e-01 1.248939999999999939e+00 3.871010000000000062e+00 2.274849999999999817e+00 6.226289999999999658e+00 2.759360000000000035e+00 1.240399999999999947e+00 9.806630000000000180e+00 3.006639999999999979e+00 3.779150000000000009e+00 1.982320000000000082e+00 3.313800000000000079e-01 9.186100000000000376e-01 9.254459999999999908e+00 2.881930000000000103e+00 1.454409999999999981e+00 2.915649999999999853e+00
1.336549999999999905e+00 2.074300000000000033e+00 3.027080000000000215e+00 1.764100000000000001e+00 1.778710000000000013e+00 8.898849999999999483e+00 3.289369999999999905e+00 2.069630000000000081e+00 4.276860000000000106e+00 4.414399999999999991e-01 3.602500000000000036e+00 8.572889999999999233e+00 2.376370000000000093e+00 3.996459999999999901e+00 1.002110000000000056e+01 4.168739999999999668e+00 1.337560000000000082e+00 7.505209999999999937e+00 1.140130000000000088e+00 1.629159999999999942e+00 5.427349999999999675e+00 1.785630000000000051e+00 3.888840000000000074e+00 4.633709999999999773e+00 4.224920000000000009e+00 1.840419999999999945e+00 1.025089999999999968e+01 1.048199999999999965e-01 2.799119999999999830e+00 1.835719999999999885e+01 3.373159999999999936e+00 4.026060000000000194e+00 1.665790000000000104e+00 6.040299999999999558e-01 3.444150000000000045e+00 1.567999999999999972e+01 4.006179999999999630e+00 4.068649999999999878e+00 5.377279999999999838e+00 3.240400000000000169e+00 6.058200000000000252e-01 1.778249999999999886e+01 1.043789999999999996e+00 2.407199999999999895e-01 1.127119999999999900e+00 2.607530000000000125e+00 3.885250000000000092e+00 7.254260000000000375e+00
3.885450000000000070e+00 2.691969999999999974e+00 9.497439999999999216e+00 3.845000000000000195e+00 5.737600000000000477e-01 2.452799999999999980e-01 2.035839999999999872e+00 2.746919999999999806e+00 7.831059999999999910e+00 1.793299999999999894e-01 2.540399999999999991e+00 6.165860000000000340e+00 1.253370000000000095e+00 3.218820000000000014e+00 3.145220000000000127e+00 6.766499999999999737e-01 6.897199999999999998e-01 7.664860000000000007e+00 1.549549999999999983e+00 1.209419999999999940e+00 1.845660000000000078e+00 2.551559999999999828e+00 5.490300000000000180e-01 9.432150000000000034e+00 3.582650000000000112e+00 2.343039999999999790e+00 1.748849999999999838e+01 3.846760000000000179e+00 1.131829999999999892e+00 2.954709999999999948e+00 1.575190000000000090e+00 3.618059999999999832e+00 3.198799999999999977e-01 1.266250000000000098e+00 -1.120600000000000068e-01 1.517239999999999966e+01 3.341530000000000111e+00 3.905999999999999750e-02 6.022389999999999688e+00 1.314820000000000100e+00 9.164600000000000524e-01 4.751859999999999751e+00 4.455269999999999619e+00 8.261300000000000310e-01 1.059929999999999950e+01 3.322740000000000027e+00 3.194240000000000190e+00 1.820869999999999989e+00
1.414199999999999902e+00 -1.339400000000000035e-01 1.845039999999999836e+01 3.778280000000000083e+00 1.508399999999999963e+00 2.911430000000000184e+00 3.584000000000000075e+00 3.781470000000000109e+00 7.551020000000000287e+00 3.354620000000000157e+00 3.784800000000000164e+00 1.490580000000000016e+00 2.982110000000000039e+00 1.162220000000000031e+00 1.631779999999999831e+01 1.952590000000000048e+00 3.267129999999999868e+00 1.080850000000000044e+01 3.565109999999999779e+00 3.557469999999999910e+00 4.403889999999999638e+00 3.733849999999999891e+00 1.605699999999999905e+00 5.843320000000000292e+00 1.425959999999999894e+00 3.962499999999999911e+00 6.183840000000000003e+00 4.208230000000000359e+00 1.976920000000000011e+00 1.483899999999999941e-01 1.464530000000000109e+00 1.719899999999999984e+00 1.609439999999999982e+00 4.101300000000000168e+00 1.861159999999999926e+00 8.416119999999999379e+00 1.752839999999999954e+00 1.833569999999999922e+00 8.813309999999999533e+00 9.633099999999999996e-01 3.712349999999999817e+00 3.140670000000000073e+00 1.870699999999999863e-01 3.774100000000000232e-01 1.014760000000000062e+01 1.457840000000000025e+00 1.444849999999999968e+00 4.248490000000000322e+00
3.264440000000000008e+00 2.877310000000000034e+00 1.560410000000000075e+00 5.845700000000000340e-01 1.548040000000000083e+00 1.084249999999999936e+00 3.815370000000000150e+00 4.125379999999999825e+00 4.105380000000000251e+00 1.504440000000000000e+00 3.495500000000000274e-01 4.633549999999999613e+00 2.785969999999999835e+00 9.535799999999999832e-01 2.369390000000000107e+00 3.858099999999999863e-01 3.152680000000000149e+00 6.012690000000000090e+00 2.678929999999999811e+00 2.834459999999999980e+00 5.478180000000000049e+00 2.467449999999999921e+00 3.662929999999999797e+00 7.445009999999999906e+00 8.965600000000000236e-01 2.869510000000000005e+00 3.430429999999999868e+00 9.996199999999999530e-01 1.302880000000000038e+00 7.120269999999999655e+00 1.185349999999999904e+00 3.717750000000000110e+00 1.219249999999999945e+00 1.195480000000000098e+00 2.145319999999999894e+00 9.281319999999999126e+00 -7.645000000000000406e-02 3.983499999999999819e+00 8.557190000000000296e+00 3.831389999999999851e+00 8.000899999999999679e-01 6.125709999999999766e+00 3.490019999999999900e+00 1.833609999999999962e+00 8.083660000000000068e+00 6.352200000000000069e-01 6.215199999999999614e-01 1.772660000000000124e+01
3.044399999999999884e-01 1.016510000000000025e+00 3.503629999999999800e+00 3.669369999999999798e+00 1.779430000000000067e+00 1.632969999999999899e+01 1.922209999999999974e+00 1.733440000000000092e+00 1.975670000000000037e+00 5.537199999999999900e-01 4.271510000000000140e+00 8.075200000000000600e+00 3.176169999999999938e+00 3.671899999999999942e+00 5.893340000000000245e+00 2.052799999999999958e+00 2.293960000000000221e+00 8.811220000000000496e+00 5.260799999999999921e-01 3.839039999999999786e+00 1.493900000000000006e+00 3.822700000000000209e+00 3.107000000000000206e+00 3.329769999999999897e+00 2.220169999999999977e+00 -1.594399999999999984e-01 9.803919999999999746e+00 4.461359999999999992e+00 1.298470000000000013e+00 5.873820000000000263e+00 3.139790000000000081e+00 6.044800000000000173e-01 7.793630000000000280e+00 2.605840000000000156e+00 8.781299999999999661e-01 1.798499999999999943e+01 1.362800000000000011e+00 3.505290000000000017e+00 4.420749999999999957e+00 3.208130000000000148e+00 2.086000000000000007e-02 1.536550000000000082e+00 8.458999999999999853e-02 3.775419999999999998e+00 1.104579999999999984e+01 2.171559999999999935e+00 1.666909999999999892e+00 5.186099999999999710e+00
1.382460000000000022e+00 4.037029999999999674e+00 5.956290000000000084e+00 1.385539999999999994e+00 5.087300000000000155e-01 1.282370000000000010e+00 4.396200000000000330e+00 2.001819999999999933e+00 1.774249999999999972e+01 2.216460000000000097e+00 3.860320000000000196e+00 8.190310000000000201e+00 1.785519999999999996e+00 1.527260000000000062e+00 8.661530000000000840e+00 4.328020000000000422e+00 3.516760000000000108e+00 4.098049999999999748e+00 2.529929999999999790e+00 2.911910000000000220e+00 2.395890000000000075e+00 2.635930000000000106e+00 1.638330000000000064e+00 4.428499999999999659e+00 -6.178000000000000158e-02 3.475519999999999943e+00 8.130140000000000811e+00 6.814000000000000612e-02 3.432360000000000078e+00 1.640260000000000051e+00 3.561010000000000009e+00 4.075339999999999741e+00 5.910730000000000040e+00 4.677109999999999879e+00 1.115299999999999958e+00 3.215949999999999864e+00 3.001219999999999999e+00 2.172340000000000160e+00 6.748210000000000264e+00 3.636810000000000098e+00 1.236969999999999903e+00 1.121620000000000061e+00 4.103919999999999568e+00 1.205330000000000013e+00 8.794150000000000134e+00 7.995600000000000485e-01 1.666020000000000056e+00 6.664719999999999978e+00
9.791900000000000048e-01 3.631600000000000161e+00 1.373900000000000121e-01 3.420609999999999928e+00 1.549879999999999924e+00 3.078959999999999919e+00 1.534010000000000096e+00 1.074349999999999916e+00 1.732010000000000050e+00 1.897739999999999982e+00 2.409619999999999873e+00 8.653969999999999274e+00 3.557910000000000128e+00 4.311790000000000234e+00 6.398640000000000327e+00 2.465419999999999945e+00 -1.482799999999999951e-01 9.231709999999999638e+00 3.666440000000000143e+00 3.264229999999999965e+00 1.420350000000000001e+00 2.674900000000000055e-01 4.310649999999999871e+00 3.298420000000000130e+00 4.678390000000000271e+00 3.429450000000000109e+00 9.496999999999999886e+00 1.417140000000000066e+00 2.049490000000000034e+00 5.064470000000000027e+00 9.984199999999999742e-01 7.996699999999999919e-01 7.238590000000000302e+00 4.217130000000000045e+00 1.197559999999999958e+00 7.139499999999999735e-01 2.663899999999999935e+00 4.406229999999999869e+00 4.181029999999999802e+00 1.998289999999999900e+00 1.787449999999999983e+00 1.712219999999999942e+01 3.056890000000000107e+00 2.212930000000000064e+00 1.156830000000000069e+01 3.627069999999999794e+00 2.094700000000000006e+00 5.644280000000000186e+00
1.705899999999999916e-01 3.869790000000000063e+00 5.698900000000000077e-01 3.100319999999999965e+00 2.133770000000000167e+00 3.867239999999999789e+00 1.801120000000000054e+00 2.066180000000000128e+00 8.790259999999999962e+00 1.857499999999999929e+00 2.207899999999999974e+00 6.093849999999999767e+00 4.416929999999999801e+00 1.277379999999999960e+00 6.985829999999999984e+00 1.695289999999999964e+00 4.153769999999999740e+00 9.766289999999999694e+00 4.287110000000000198e+00 2.479099999999999859e+00 9.189470000000000027e+00 3.873759999999999870e+00 3.313849999999999962e+00 6.848250000000000171e+00 4.158899999999999819e-01 9.162700000000000289e-01 4.221029999999999838e+00 2.816640000000000033e+00 8.676000000000000378e-02 2.482580000000000009e+00 1.866519999999999957e+00 1.502400000000000124e-01 7.471790000000000376e+00 2.048770000000000202e+00 2.784740000000000215e+00 9.038899999999999713e-01 4.279810000000000336e+00 1.798389999999999933e+00 1.213179999999999925e+00 6.458300000000000152e-01 3.502089999999999925e+00 2.637239999999999807e+00 2.968049999999999855e+00 2.499760000000000204e+00 1.623280000000000101e+01 3.111479999999999801e+00 8.032999999999999863e-02 5.005469999999999864e+00
5.700300000000000367e-01 3.435309999999999864e+00 2.976309999999999789e+00 4.007649999999999935e+00 4.356499999999999595e+00 1.857900000000000107e-01 3.243850000000000122e+00 2.522019999999999929e+00 6.066440000000000055e+00 3.163170000000000037e+00 2.113960000000000061e+00 3.731809999999999850e+00 4.488000000000000433e+00 8.678099999999999703e-01 6.028389999999999915e+00 8.615000000000000435e-01 2.776949999999999807e+00 5.048079999999999679e+00 2.063149999999999817e+00 3.804500000000000104e-01 7.274000000000000021e+00 1.952599999999999891e-01 2.966079999999999828e+00 7.461350000000000371e+00 1.255949999999999900e+00 1.061879999999999935e+00 2.949590000000000156e+00 2.440220000000000056e+00 2.607650000000000023e+00 1.360749999999999904e+00 4.513029999999999653e+00 2.166360000000000063e+00 1.029819999999999958e+00 4.421619999999999884e+00 6.786799999999999500e-01 9.336499999999999133e+00 9.818200000000000260e-01 2.774640000000000217e+00 1.069880000000000031e+01 1.516890000000000072e+00 4.836799999999999988e-01 5.495700000000000029e-01 2.532119999999999926e+00 2.804089999999999971e+00 8.425280000000000769e+00 3.226789999999999825e+00 1.197099999999999970e-01 2.242230000000000167e+00