-4.953538547000000136e+01
-4.849179124999999857e+01
-4.518135518999999789e+01
-4.788440434000000323e+01
-4.693054053000000181e+01
-4.622711671999999794e+01
-4.771685035000000141e+01
-4.486547585000000282e+01
-4.774989068000000003e+01
-4.474591898999999984e+01
-4.849229731999999871e+01
-4.915544960999999802e+01
-4.783856679000000156e+01
-4.498427720000000107e+01
-4.781218946999999986e+01
-4.768850468000000120e+01
-4.762403523999999777e+01
-4.826627222999999844e+01
-4.931378750999999738e+01
-4.507188144999999935e+01
-4.884840482999999978e+01
-4.545177753000000109e+01
-4.862647697999999963e+01
-4.834078053999999725e+01
-4.613606355999999664e+01
-4.955035647999999782e+01
-4.842655544000000134e+01
-4.885397001999999844e+01
-5.104770935999999892e+01
-4.872681055000000327e+01
-4.842766129999999691e+01
-4.833142907999999949e+01
-4.805668164000000075e+01
-4.771768653000000171e+01
-4.829416205999999789e+01
-4.859768230000000244e+01
-4.942600808000000256e+01
-4.905361125000000300e+01
-4.801663869000000062e+01
-4.776294318000000061e+01
-4.768315178000000287e+01
-4.867128535999999883e+01
-4.865259091000000069e+01
-4.929549619000000149e+01
-4.903540689999999813e+01
-4.620804700000000054e+01
-4.731665172000000297e+01
-4.772929884999999928e+01
-4.839405567000000019e+01
-4.649671928000000065e+01
-4.876750533999999959e+01
-4.774516793000000092e+01
-4.615282426000000271e+01
-4.864195555999999954e+01
-4.812132279000000068e+01
-4.829951794000000120e+01
-4.966384722000000096e+01
-5.007999551999999710e+01
-4.812257986000000187e+01
-4.560988810999999998e+01
-4.765604393000000272e+01
-4.880004029999999915e+01
-4.933020464999999888e+01
-4.614315755999999880e+01
-4.923304112999999660e+01
-4.690917748999999759e+01
-4.872408405000000187e+01
-4.569165406999999846e+01
-5.075516178000000167e+01
-4.544462663000000191e+01
-4.842160065000000202e+01
-4.847756430999999822e+01
-4.614273537999999775e+01
-4.812314566999999954e+01
-4.903627457999999706e+01
-4.461796254000000062e+01
-4.662379008999999996e+01
-4.705757193000000171e+01
-4.932976030999999750e+01
-4.631582389999999805e+01
-4.550392784000000290e+01
-4.760925746000000203e+01
-4.690324674000000016e+01
-4.687343272999999755e+01
-4.742237114999999648e+01
-4.523236318000000011e+01
-4.614057936999999754e+01
-4.916561996000000079e+01
-4.761002050999999824e+01
-4.810831094000000263e+01
-4.743762853999999862e+01
-4.760131985000000299e+01
-4.923097745999999830e+01
-4.742551885999999683e+01
-4.978017320000000012e+01
-4.770318029999999965e+01
-4.721587582000000083e+01
-4.555392279000000144e+01
-4.783158982999999864e+01
-4.812899863999999894e+01
