5.205428903999999690e+00 0.000000000000000000e+00 0.000000000000000000e+00 2.602741126999999821e+00 4.508018930999999618e+00 0.000000000000000000e+00 -5.980000000000000343e-07 -1.159999999999999905e-06 8.486397808999999626e+00
5.317757304999999768e+00 0.000000000000000000e+00 0.000000000000000000e+00 2.715297341999999947e+00 4.448832093000000043e+00 0.000000000000000000e+00 -1.439182280000000091e-01 -2.511631209999999892e-01 8.547570922000000238e+00
5.301500569999999968e+00 0.000000000000000000e+00 0.000000000000000000e+00 2.706996499999999806e+00 4.435231721000000071e+00 0.000000000000000000e+00 -1.434782609999999958e-01 -2.503952990000000156e-01 8.521440435000000591e+00
5.198026879999999572e+00 0.000000000000000000e+00 0.000000000000000000e+00 2.599040077000000171e+00 4.501608612000000065e+00 0.000000000000000000e+00 -5.969999999999999592e-07 -1.157999999999999967e-06 8.474330308000000755e+00
5.037566399000000139e+00 0.000000000000000000e+00 0.000000000000000000e+00 2.466935209999999934e+00 4.610592723999999976e+00 0.000000000000000000e+00 -4.488593600000000128e-02 -1.220479440000000054e-01 8.443220658999999628e+00
5.002635478000000191e+00 0.000000000000000000e+00 0.000000000000000000e+00 2.449829267999999782e+00 4.578622475000000414e+00 0.000000000000000000e+00 -4.457469299999999857e-02 -1.212016530000000064e-01 8.384674635999999737e+00
5.280702666999999906e+00 0.000000000000000000e+00 0.000000000000000000e+00 2.696376893000000052e+00 4.417832209000000177e+00 0.000000000000000000e+00 -1.429153920000000022e-01 -2.494129929999999995e-01 8.488010637000000358e+00
5.331183753000000358e+00 0.000000000000000000e+00 0.000000000000000000e+00 2.783830806000000102e+00 4.445312176999999920e+00 0.000000000000000000e+00 -2.230464920000000129e-01 -1.160330980000000012e-01 8.378399333999999143e+00
5.294897648000000068e+00 0.000000000000000000e+00 0.000000000000000000e+00 2.764882973999999827e+00 4.415055657999999994e+00 0.000000000000000000e+00 -2.215283510000000122e-01 -1.152433320000000039e-01 8.321372696999999263e+00
5.219578081999999952e+00 0.000000000000000000e+00 0.000000000000000000e+00 2.665166099999999982e+00 4.366695423000000353e+00 0.000000000000000000e+00 -1.412611340000000104e-01 -2.465260159999999867e-01 8.389761186999999509e+00
5.316506154999999900e+00 0.000000000000000000e+00 0.000000000000000000e+00 2.776166476999999855e+00 4.433073525000000181e+00 0.000000000000000000e+00 -2.224324099999999971e-01 -1.157136410000000060e-01 8.355332265999999564e+00
5.148432328000000169e+00 0.000000000000000000e+00 0.000000000000000000e+00 2.534239738000000131e+00 4.520798784000000126e+00 0.000000000000000000e+00 -1.163864109999999952e-01 -1.835657149999999904e-01 8.398268576999999624e+00
5.014514654000000071e+00 0.000000000000000000e+00 0.000000000000000000e+00 2.455646591999999906e+00 4.589494797000000403e+00 0.000000000000000000e+00 -4.468053999999999776e-02 -1.214894559999999957e-01 8.404584745999999384e+00
5.234674075000000038e+00 0.000000000000000000e+00 0.000000000000000000e+00 2.672874257000000142e+00 4.379324719999999616e+00 0.000000000000000000e+00 -1.416696879999999881e-01 -2.472390150000000064e-01 8.414025941000000230e+00
5.203608409000000101e+00 0.000000000000000000e+00 0.000000000000000000e+00 2.657011832999999879e+00 4.353335204999999597e+00 0.000000000000000000e+00 -1.408289359999999879e-01 -2.457717520000000100e-01 8.364092111999999801e+00
5.232475099000000185e+00 0.000000000000000000e+00 0.000000000000000000e+00 2.616264362999999982e+00 4.531441547000000014e+00 0.000000000000000000e+00 -6.010000000000000480e-07 -1.165999999999999932e-06 8.530491154999999992e+00
5.195838911000000060e+00 0.000000000000000000e+00 0.000000000000000000e+00 2.557574928000000192e+00 4.562426140000000352e+00 0.000000000000000000e+00 -1.174580929999999995e-01 -1.852559809999999862e-01 8.475599538000000877e+00
5.013910547000000051e+00 0.000000000000000000e+00 0.000000000000000000e+00 2.455350757000000161e+00 4.588941893000000327e+00 0.000000000000000000e+00 -4.467515700000000006e-02 -1.214748199999999972e-01 8.403572233000000224e+00
5.314201424000000173e+00 0.000000000000000000e+00 0.000000000000000000e+00 2.774962995000000099e+00 4.431151766000000158e+00 0.000000000000000000e+00 -2.223359839999999865e-01 -1.156634780000000001e-01 8.351710189000000284e+00
5.282510336999999723e+00 0.000000000000000000e+00 0.000000000000000000e+00 2.697299906000000025e+00 4.419344503999999674e+00 0.000000000000000000e+00 -1.429643150000000085e-01 -2.494983709999999966e-01 8.490916220000000791e+00
5.095138816999999598e+00 0.000000000000000000e+00 0.000000000000000000e+00 2.495128868000000111e+00 4.663285422999999597e+00 0.000000000000000000e+00 -4.539892000000000233e-02 -1.234427830000000004e-01 8.539714996000000724e+00
5.155329506000000173e+00 0.000000000000000000e+00 0.000000000000000000e+00 2.537634772000000094e+00 4.526855143999999775e+00 0.000000000000000000e+00 -1.165423299999999995e-01 -1.838116310000000031e-01 8.409519449999999452e+00
5.100562727999999879e+00 0.000000000000000000e+00 0.000000000000000000e+00 2.550307501999999893e+00 4.417202456000000055e+00 0.000000000000000000e+00 -5.859999999999999798e-07 -1.137000000000000083e-06 8.315434743000000850e+00
5.322298778999999591e+00 0.000000000000000000e+00 0.000000000000000000e+00 2.779191261999999885e+00 4.437903601000000364e+00 0.000000000000000000e+00 -2.226747619999999983e-01 -1.158397169999999948e-01 8.364435857000000141e+00
5.258027536000000168e+00 0.000000000000000000e+00 0.000000000000000000e+00 2.629040713000000196e+00 4.553570534000000336e+00 0.000000000000000000e+00 -6.039999999999999557e-07 -1.171999999999999960e-06 8.572149229000000759e+00
5.187621835999999931e+00 0.000000000000000000e+00 0.000000000000000000e+00 2.593837501999999962e+00 4.492597608999999714e+00 0.000000000000000000e+00 -5.959999999999999900e-07 -1.156000000000000028e-06 8.457366992000000749e+00
5.274330410000000136e+00 0.000000000000000000e+00 0.000000000000000000e+00 2.754143199000000042e+00 4.397906034000000020e+00 0.000000000000000000e+00 -2.206678579999999945e-01 -1.147956869999999935e-01 8.289049568999999451e+00
5.034273642999999687e+00 0.000000000000000000e+00 0.000000000000000000e+00 2.465322721999999800e+00 4.607579055000000423e+00 0.000000000000000000e+00 -4.485659699999999805e-02 -1.219681690000000013e-01 8.437701829999999958e+00
5.112996807000000032e+00 0.000000000000000000e+00 0.000000000000000000e+00 2.516797126000000162e+00 4.489683126000000080e+00 0.000000000000000000e+00 -1.155853490000000039e-01 -1.823022719999999874e-01 8.340465153000000242e+00
5.103512273999999849e+00 0.000000000000000000e+00 0.000000000000000000e+00 2.551782289999999787e+00 4.419756829999999859e+00 0.000000000000000000e+00 -5.859999999999999798e-07 -1.137000000000000083e-06 8.320243381999999244e+00
5.286185170999999627e+00 0.000000000000000000e+00 0.000000000000000000e+00 2.699176310999999995e+00 4.422418868000000280e+00 0.000000000000000000e+00 -1.430637690000000073e-01 -2.496719370000000104e-01 8.496823015000000368e+00
5.269915304000000411e+00 0.000000000000000000e+00 0.000000000000000000e+00 2.690868763000000108e+00 4.408807508999999847e+00 0.000000000000000000e+00 -1.426234459999999871e-01 -2.489034950000000024e-01 8.470671420000000396e+00
5.261038881000000167e+00 0.000000000000000000e+00 0.000000000000000000e+00 2.630546401000000145e+00 4.556178427999999947e+00 0.000000000000000000e+00 -6.039999999999999557e-07 -1.171999999999999960e-06 8.577058618000000578e+00
5.225032877000000298e+00 0.000000000000000000e+00 0.000000000000000000e+00 2.571945225999999973e+00 4.588061136000000317e+00 0.000000000000000000e+00 -1.181180569999999985e-01 -1.862968829999999965e-01 8.523221560999999724e+00
5.064855654999999679e+00 0.000000000000000000e+00 0.000000000000000000e+00 2.480298970000000214e+00 4.635568999000000190e+00 0.000000000000000000e+00 -4.512908999999999671e-02 -1.227090960000000036e-01 8.488958857000000080e+00
5.178892420000000385e+00 0.000000000000000000e+00 0.000000000000000000e+00 2.549233268000000052e+00 4.547545556000000211e+00 0.000000000000000000e+00 -1.170749979999999996e-01 -1.846517589999999986e-01 8.447955941000000024e+00
5.283821087999999833e+00 0.000000000000000000e+00 0.000000000000000000e+00 2.697969188000000074e+00 4.420441077999999635e+00 0.000000000000000000e+00 -1.429997879999999888e-01 -2.495602789999999960e-01 8.493023073999999895e+00
5.048311443000000232e+00 0.000000000000000000e+00 0.000000000000000000e+00 2.472197141000000098e+00 4.620427040000000041e+00 0.000000000000000000e+00 -4.498167699999999769e-02 -1.223082699999999967e-01 8.461229904999999718e+00
5.167622440999999789e+00 0.000000000000000000e+00 0.000000000000000000e+00 2.543685786999999809e+00 4.537649475000000265e+00 0.000000000000000000e+00 -1.168202259999999992e-01 -1.842499320000000052e-01 8.429572033999999547e+00
5.341769245000000055e+00 0.000000000000000000e+00 0.000000000000000000e+00 2.789358324999999805e+00 4.454138699999999673e+00 0.000000000000000000e+00 -2.234893689999999933e-01 -1.162634909999999966e-01 8.395035315999999526e+00
5.181063342999999932e+00 0.000000000000000000e+00 0.000000000000000000e+00 2.550301872999999997e+00 4.549451827999999587e+00 0.000000000000000000e+00 -1.171240739999999947e-01 -1.847291630000000018e-01 8.451497212999999675e+00
5.288910190000000178e+00 0.000000000000000000e+00 0.000000000000000000e+00 2.700567732000000110e+00 4.424698616999999778e+00 0.000000000000000000e+00 -1.431375179999999914e-01 -2.498006429999999889e-01 8.501203113000000755e+00
5.228444524000000371e+00 0.000000000000000000e+00 0.000000000000000000e+00 2.669693388999999861e+00 4.374113083000000124e+00 0.000000000000000000e+00 -1.415010929999999945e-01 -2.469447869999999989e-01 8.404012786999999207e+00
5.353358819000000324e+00 0.000000000000000000e+00 0.000000000000000000e+00 2.795410153999999814e+00 4.463802459000000056e+00 0.000000000000000000e+00 -2.239742550000000110e-01 -1.165157379999999937e-01 8.413249297000000126e+00
5.166294919000000263e+00 0.000000000000000000e+00 0.000000000000000000e+00 2.543032333999999839e+00 4.536483787999999961e+00 0.000000000000000000e+00 -1.167902160000000022e-01 -1.842025999999999941e-01 8.427406541999999945e+00
5.208622722000000316e+00 0.000000000000000000e+00 0.000000000000000000e+00 2.563867570000000207e+00 4.573651506000000033e+00 0.000000000000000000e+00 -1.177470860000000008e-01 -1.857117839999999909e-01 8.496452851999999112e+00
5.035059388999999719e+00 0.000000000000000000e+00 0.000000000000000000e+00 2.465707507999999937e+00 4.608298203000000370e+00 0.000000000000000000e+00 -4.486359799999999759e-02 -1.219872050000000013e-01 8.439018779999999609e+00
5.346360097999999894e+00 0.000000000000000000e+00 0.000000000000000000e+00 2.791755570999999936e+00 4.457966701000000143e+00 0.000000000000000000e+00 -2.236814420000000081e-01 -1.163634109999999999e-01 8.402250223999999434e+00
5.083780724999999556e+00 0.000000000000000000e+00 0.000000000000000000e+00 2.541916414000000124e+00 4.402668862999999710e+00 0.000000000000000000e+00 -5.840000000000000413e-07 -1.132999999999999994e-06 8.288075084999999120e+00
5.158291265999999986e+00 0.000000000000000000e+00 0.000000000000000000e+00 2.579172067000000013e+00 4.467196673000000118e+00 0.000000000000000000e+00 -5.920000000000000071e-07 -1.148999999999999926e-06 8.409549436000000711e+00
5.079565595000000044e+00 0.000000000000000000e+00 0.000000000000000000e+00 2.487502541000000011e+00 4.649032155000000444e+00 0.000000000000000000e+00 -4.526015900000000119e-02 -1.230654820000000038e-01 8.513613472999999487e+00
5.077010656999999760e+00 0.000000000000000000e+00 0.000000000000000000e+00 2.486251368000000017e+00 4.646693767999999558e+00 0.000000000000000000e+00 -4.523739400000000022e-02 -1.230035820000000002e-01 8.509331266000000227e+00
5.293363339999999972e+00 0.000000000000000000e+00 0.000000000000000000e+00 2.764081790000000094e+00 4.413776301999999596e+00 0.000000000000000000e+00 -2.214641589999999938e-01 -1.152099379999999978e-01 8.318961403999999504e+00
5.278442867999999955e+00 0.000000000000000000e+00 0.000000000000000000e+00 2.756290637000000210e+00 4.401335133999999982e+00 0.000000000000000000e+00 -2.208399149999999977e-01 -1.148851939999999960e-01 8.295512639000000021e+00
5.106345951999999855e+00 0.000000000000000000e+00 0.000000000000000000e+00 2.500617088999999904e+00 4.673542664000000180e+00 0.000000000000000000e+00 -4.549877900000000308e-02 -1.237143049999999966e-01 8.558498730000000165e+00
5.174077715000000133e+00 0.000000000000000000e+00 0.000000000000000000e+00 2.546863300000000052e+00 4.543317800999999712e+00 0.000000000000000000e+00 -1.169661560000000017e-01 -1.844800930000000116e-01 8.440102058000000795e+00
5.220952185999999884e+00 0.000000000000000000e+00 0.000000000000000000e+00 2.610502847999999876e+00 4.521462443999999969e+00 0.000000000000000000e+00 -5.990000000000000036e-07 -1.162999999999999919e-06 8.511705378000000266e+00
5.298709575000000171e+00 0.000000000000000000e+00 0.000000000000000000e+00 2.766873481000000190e+00 4.418234164000000241e+00 0.000000000000000000e+00 -2.216878349999999998e-01 -1.153262979999999938e-01 8.327363457000000579e+00
5.225419110999999894e+00 0.000000000000000000e+00 0.000000000000000000e+00 2.728602759000000155e+00 4.357122223000000183e+00 0.000000000000000000e+00 -2.186215029999999948e-01 -1.137311329999999981e-01 8.212181388999999498e+00
4.962502192999999728e+00 0.000000000000000000e+00 0.000000000000000000e+00 2.430175687999999834e+00 4.541890804000000337e+00 0.000000000000000000e+00 -4.421709599999999740e-02 -1.202293210000000001e-01 8.317409184000000621e+00
5.269907216000000005e+00 0.000000000000000000e+00 0.000000000000000000e+00 2.634980613000000194e+00 4.563858605000000068e+00 0.000000000000000000e+00 -6.050000000000000309e-07 -1.173999999999999898e-06 8.591516641000000121e+00
5.337361052000000328e+00 0.000000000000000000e+00 0.000000000000000000e+00 2.787056460000000069e+00 4.450463006999999749e+00 0.000000000000000000e+00 -2.233049390000000078e-01 -1.161675469999999960e-01 8.388107473999999897e+00
5.162879601000000207e+00 0.000000000000000000e+00 0.000000000000000000e+00 2.541351194000000202e+00 4.533484823000000219e+00 0.000000000000000000e+00 -1.167130090000000064e-01 -1.840808270000000024e-01 8.421835377000000733e+00
4.959944937999999581e+00 0.000000000000000000e+00 0.000000000000000000e+00 2.428923380000000076e+00 4.539550296999999901e+00 0.000000000000000000e+00 -4.419431000000000054e-02 -1.201673649999999982e-01 8.313123092999999741e+00
5.211825572999999601e+00 0.000000000000000000e+00 0.000000000000000000e+00 2.605939494999999884e+00 4.513558591999999869e+00 0.000000000000000000e+00 -5.980000000000000343e-07 -1.160999999999999980e-06 8.496826284000000840e+00
5.178517163999999617e+00 0.000000000000000000e+00 0.000000000000000000e+00 2.644200005000000075e+00 4.332343887999999588e+00 0.000000000000000000e+00 -1.401498740000000076e-01 -2.445866670000000076e-01 8.323761352000000002e+00
4.967915227999999850e+00 0.000000000000000000e+00 0.000000000000000000e+00 2.432826492999999868e+00 4.546845042000000170e+00 0.000000000000000000e+00 -4.426532700000000015e-02 -1.203604659999999993e-01 8.326481709999999481e+00
5.306390352000000199e+00 0.000000000000000000e+00 0.000000000000000000e+00 2.709493269000000204e+00 4.439322509000000139e+00 0.000000000000000000e+00 -1.436105960000000070e-01 -2.506262490000000231e-01 8.529300093999999888e+00
5.244956382999999889e+00 0.000000000000000000e+00 0.000000000000000000e+00 2.678124501000000102e+00 4.387926893000000383e+00 0.000000000000000000e+00 -1.419479650000000093e-01 -2.477246590000000137e-01 8.430553352000000444e+00
5.281828261000000246e+00 0.000000000000000000e+00 0.000000000000000000e+00 2.696951632000000210e+00 4.418773879999999821e+00 0.000000000000000000e+00 -1.429458550000000105e-01 -2.494661559999999945e-01 8.489819875000000238e+00
5.251639576999999726e+00 0.000000000000000000e+00 0.000000000000000000e+00 2.742294529000000036e+00 4.378985689000000292e+00 0.000000000000000000e+00 -2.197185170000000021e-01 -1.143018209999999979e-01 8.253389035999999734e+00
5.158067748999999758e+00 0.000000000000000000e+00 0.000000000000000000e+00 2.538982631000000101e+00 4.529259574000000121e+00 0.000000000000000000e+00 -1.166042310000000026e-01 -1.839092619999999900e-01 8.413986148999999415e+00
5.209085662999999755e+00 0.000000000000000000e+00 0.000000000000000000e+00 2.564095446000000056e+00 4.574058010999999979e+00 0.000000000000000000e+00 -1.177575520000000014e-01 -1.857282899999999903e-01 8.497208013999999920e+00
5.049145092999999918e+00 0.000000000000000000e+00 0.000000000000000000e+00 2.472605386000000127e+00 4.621190032000000336e+00 0.000000000000000000e+00 -4.498910500000000146e-02 -1.223284679999999958e-01 8.462627146000000877e+00
5.193631513999999783e+00 0.000000000000000000e+00 0.000000000000000000e+00 2.596842371999999788e+00 4.497802125999999845e+00 0.000000000000000000e+00 -5.959999999999999900e-07 -1.157000000000000103e-06 8.467164554000000010e+00
5.300692134000000166e+00 0.000000000000000000e+00 0.000000000000000000e+00 2.706583703999999813e+00 4.434555383000000184e+00 0.000000000000000000e+00 -1.434563809999999939e-01 -2.503571159999999907e-01 8.520140983999999307e+00
5.310652884999999657e+00 0.000000000000000000e+00 0.000000000000000000e+00 2.773110023000000091e+00 4.428192880000000109e+00 0.000000000000000000e+00 -2.221875199999999995e-01 -1.155862440000000047e-01 8.346133363999999943e+00
5.122415967000000236e+00 0.000000000000000000e+00 0.000000000000000000e+00 2.561234232999999971e+00 4.436127854999999620e+00 0.000000000000000000e+00 -5.880000000000000242e-07 -1.140999999999999960e-06 8.351062024999999167e+00
5.163190035999999594e+00 0.000000000000000000e+00 0.000000000000000000e+00 2.581621477000000109e+00 4.471439118000000157e+00 0.000000000000000000e+00 -5.929999999999999763e-07 -1.150000000000000001e-06 8.417535887999999744e+00
5.230144765999999557e+00 0.000000000000000000e+00 0.000000000000000000e+00 2.670561548999999868e+00 4.375535504000000131e+00 0.000000000000000000e+00 -1.415471080000000048e-01 -2.470250910000000022e-01 8.406745692999999520e+00
5.289968206000000173e+00 0.000000000000000000e+00 0.000000000000000000e+00 2.762308924000000054e+00 4.410945330999999747e+00 0.000000000000000000e+00 -2.213221129999999870e-01 -1.151360429999999935e-01 8.313625669000000329e+00
5.121859478000000188e+00 0.000000000000000000e+00 0.000000000000000000e+00 2.560955986000000184e+00 4.435645921999999963e+00 0.000000000000000000e+00 -5.880000000000000242e-07 -1.140999999999999960e-06 8.350154782000000608e+00
5.317791606000000115e+00 0.000000000000000000e+00 0.000000000000000000e+00 2.776837711999999847e+00 4.434145374999999945e+00 0.000000000000000000e+00 -2.224861909999999998e-01 -1.157416180000000044e-01 8.357352458999999456e+00
5.059187440999999730e+00 0.000000000000000000e+00 0.000000000000000000e+00 2.477523200999999897e+00 4.630381211000000441e+00 0.000000000000000000e+00 -4.507858499999999741e-02 -1.225717689999999971e-01 8.479458637000000465e+00
5.319557888000000290e+00 0.000000000000000000e+00 0.000000000000000000e+00 2.716216736999999881e+00 4.450338460000000218e+00 0.000000000000000000e+00 -1.439669590000000055e-01 -2.512481650000000233e-01 8.550465114999999727e+00
5.158588972000000439e+00 0.000000000000000000e+00 0.000000000000000000e+00 2.579320920999999878e+00 4.467454492999999971e+00 0.000000000000000000e+00 -5.920000000000000071e-07 -1.148999999999999926e-06 8.410034785000000568e+00
5.007716474999999612e+00 0.000000000000000000e+00 0.000000000000000000e+00 2.452317471000000193e+00 4.583272817000000110e+00 0.000000000000000000e+00 -4.461996599999999702e-02 -1.213247529999999935e-01 8.393190648999999226e+00
5.336545445999999693e+00 0.000000000000000000e+00 0.000000000000000000e+00 2.786630568000000086e+00 4.449782929000000387e+00 0.000000000000000000e+00 -2.232708150000000114e-01 -1.161497950000000001e-01 8.386825680999999477e+00
5.188860584999999581e+00 0.000000000000000000e+00 0.000000000000000000e+00 2.594456882999999880e+00 4.493670393000000374e+00 0.000000000000000000e+00 -5.959999999999999900e-07 -1.156000000000000028e-06 8.459386520000000687e+00
5.171883615999999684e+00 0.000000000000000000e+00 0.000000000000000000e+00 2.545783287999999978e+00 4.541391179999999750e+00 0.000000000000000000e+00 -1.169165550000000053e-01 -1.844018629999999992e-01 8.436522982999999698e+00
5.041401947999999855e+00 0.000000000000000000e+00 0.000000000000000000e+00 2.468813508000000212e+00 4.614103178999999777e+00 0.000000000000000000e+00 -4.492011199999999815e-02 -1.221408699999999986e-01 8.449649236000000840e+00
5.305944872999999617e+00 0.000000000000000000e+00 0.000000000000000000e+00 2.709265803000000084e+00 4.438949820999999574e+00 0.000000000000000000e+00 -1.435985399999999967e-01 -2.506052080000000237e-01 8.528584047000000723e+00
5.354935109000000359e+00 0.000000000000000000e+00 0.000000000000000000e+00 2.796233259000000082e+00 4.465116820000000430e+00 0.000000000000000000e+00 -2.240402039999999928e-01 -1.165500460000000044e-01 8.415726568000000185e+00
5.353204193999999916e+00 0.000000000000000000e+00 0.000000000000000000e+00 2.733396860000000039e+00 4.478486936000000362e+00 0.000000000000000000e+00 -1.448775519999999928e-01 -2.528373139999999797e-01 8.604546970999999544e+00
5.163556117999999806e+00 0.000000000000000000e+00 0.000000000000000000e+00 2.581804519999999936e+00 4.471756154000000372e+00 0.000000000000000000e+00 -5.929999999999999763e-07 -1.151000000000000076e-06 8.418132712000000240e+00
5.039239303999999642e+00 0.000000000000000000e+00 0.000000000000000000e+00 2.467754444000000102e+00 4.612123837000000393e+00 0.000000000000000000e+00 -4.490084200000000331e-02 -1.220884740000000024e-01 8.446024532999999224e+00
5.202120443000000094e+00 0.000000000000000000e+00 0.000000000000000000e+00 2.601086879999999990e+00 4.505153729999999968e+00 0.000000000000000000e+00 -5.969999999999999592e-07 -1.159000000000000042e-06 8.481004034999999774e+00
5.181131977999999805e+00 0.000000000000000000e+00 0.000000000000000000e+00 2.645535154000000055e+00 4.334531439000000042e+00 0.000000000000000000e+00 -1.402206400000000075e-01 -2.447101670000000062e-01 8.327964309000000398e+00
5.162762512999999664e+00 0.000000000000000000e+00 0.000000000000000000e+00 2.541293559000000091e+00 4.533382009000000323e+00 0.000000000000000000e+00 -1.167103619999999981e-01 -1.840766530000000067e-01 8.421644380000000041e+00
5.044457267000000300e+00 0.000000000000000000e+00 0.000000000000000000e+00 2.470309721000000014e+00 4.616899536000000026e+00 0.000000000000000000e+00 -4.494733599999999746e-02 -1.222148930000000050e-01 8.454770109000000033e+00
5.206422253000000389e+00 0.000000000000000000e+00 0.000000000000000000e+00 2.562784420999999924e+00 4.571719290999999963e+00 0.000000000000000000e+00 -1.176973419999999965e-01 -1.856333269999999869e-01 8.492863384999999710e+00
5.214666993999999889e+00 0.000000000000000000e+00 0.000000000000000000e+00 2.566842772999999855e+00 4.578958934000000092e+00 0.000000000000000000e+00 -1.178837239999999953e-01 -1.859272909999999945e-01 8.506312439000000225e+00
5.064517862999999842e+00 0.000000000000000000e+00 0.000000000000000000e+00 2.480133550000000131e+00 4.635259837000000438e+00 0.000000000000000000e+00 -4.512607999999999897e-02 -1.227009119999999953e-01 8.488392699000000263e+00
5.284657772000000087e+00 0.000000000000000000e+00 0.000000000000000000e+00 2.759535928000000027e+00 4.406517320999999932e+00 0.000000000000000000e+00 -2.210999349999999974e-01 -1.150204610000000044e-01 8.305279879000000420e+00
5.168701181000000311e+00 0.000000000000000000e+00 0.000000000000000000e+00 2.544216780999999816e+00 4.538596708000000035e+00 0.000000000000000000e+00 -1.168446129999999999e-01 -1.842883939999999943e-01 8.431331703999999760e+00
5.091971827000000062e+00 0.000000000000000000e+00 0.000000000000000000e+00 2.493577968999999950e+00 4.660386860000000020e+00 0.000000000000000000e+00 -4.537070199999999887e-02 -1.233660550000000022e-01 8.534406956999999849e+00
4.996432619000000130e+00 0.000000000000000000e+00 0.000000000000000000e+00 2.446791680000000024e+00 4.572945358000000127e+00 0.000000000000000000e+00 -4.451942400000000188e-02 -1.210513730000000038e-01 8.374278326000000661e+00
5.301704797000000191e+00 0.000000000000000000e+00 0.000000000000000000e+00 2.707100780000000206e+00 4.435402576999999624e+00 0.000000000000000000e+00 -1.434837880000000010e-01 -2.504049449999999899e-01 8.521768701999999251e+00
4.963918902999999716e+00 0.000000000000000000e+00 0.000000000000000000e+00 2.430869461999999981e+00 4.543187437000000273e+00 0.000000000000000000e+00 -4.422971900000000067e-02 -1.202636450000000023e-01 8.319783663999999135e+00
5.181347831000000070e+00 0.000000000000000000e+00 0.000000000000000000e+00 2.550441907999999813e+00 4.549701633999999828e+00 0.000000000000000000e+00 -1.171305049999999959e-01 -1.847393059999999920e-01 8.451961278000000632e+00
5.224915864999999826e+00 0.000000000000000000e+00 0.000000000000000000e+00 2.667891621999999963e+00 4.371161008999999709e+00 0.000000000000000000e+00 -1.414055949999999950e-01 -2.467781249999999871e-01 8.398340946999999446e+00
5.365428743999999917e+00 0.000000000000000000e+00 0.000000000000000000e+00 2.801712811999999886e+00 4.473866750000000003e+00 0.000000000000000000e+00 -2.244792369999999981e-01 -1.167784399999999972e-01 8.432218190000000391e+00
5.068222806999999719e+00 0.000000000000000000e+00 0.000000000000000000e+00 2.481947889999999823e+00 4.638650757999999819e+00 0.000000000000000000e+00 -4.515909199999999790e-02 -1.227906740000000024e-01 8.494602376999999649e+00
5.149803494000000370e+00 0.000000000000000000e+00 0.000000000000000000e+00 2.534914673999999923e+00 4.522002794999999686e+00 0.000000000000000000e+00 -1.164174080000000000e-01 -1.836146029999999874e-01 8.400505261999999362e+00
5.241812816000000375e+00 0.000000000000000000e+00 0.000000000000000000e+00 2.676519365999999955e+00 4.385296986000000174e+00 0.000000000000000000e+00 -1.418628889999999920e-01 -2.475761850000000042e-01 8.425500494999999646e+00
5.242790492000000135e+00 0.000000000000000000e+00 0.000000000000000000e+00 2.621422112999999943e+00 4.540374910999999791e+00 0.000000000000000000e+00 -6.020000000000000172e-07 -1.168000000000000083e-06 8.547308315000000434e+00
5.235474370000000377e+00 0.000000000000000000e+00 0.000000000000000000e+00 2.617764014000000028e+00 4.534038983000000300e+00 0.000000000000000000e+00 -6.010000000000000480e-07 -1.167000000000000008e-06 8.535380858999999987e+00
5.280043350999999774e+00 0.000000000000000000e+00 0.000000000000000000e+00 2.757126375999999990e+00 4.402669667999999703e+00 0.000000000000000000e+00 -2.209068760000000020e-01 -1.149200290000000069e-01 8.298027932000000106e+00
5.227911427999999638e+00 0.000000000000000000e+00 0.000000000000000000e+00 2.613982503999999985e+00 4.527489304999999575e+00 0.000000000000000000e+00 -5.999999999999999728e-07 -1.165000000000000069e-06 8.523051012999999898e+00
4.985534401999999865e+00 0.000000000000000000e+00 0.000000000000000000e+00 2.441454739000000096e+00 4.562970850000000134e+00 0.000000000000000000e+00 -4.442231900000000178e-02 -1.207873359999999952e-01 8.356012352000000476e+00
5.316366848000000367e+00 0.000000000000000000e+00 0.000000000000000000e+00 2.714587362000000059e+00 4.447668838000000235e+00 0.000000000000000000e+00 -1.438805969999999990e-01 -2.510974489999999726e-01 8.545335952000000290e+00
4.991534812000000265e+00 0.000000000000000000e+00 0.000000000000000000e+00 2.444393186000000107e+00 4.568462678000000388e+00 0.000000000000000000e+00 -4.447578399999999738e-02 -1.209327109999999983e-01 8.366069347999999906e+00
5.276871700000000054e+00 0.000000000000000000e+00 0.000000000000000000e+00 2.694420764999999829e+00 4.414627224000000183e+00 0.000000000000000000e+00 -1.428117120000000073e-01 -2.492320520000000095e-01 8.481852878999999845e+00
5.148407469000000347e+00 0.000000000000000000e+00 0.000000000000000000e+00 2.534227501000000160e+00 4.520776955999999736e+00 0.000000000000000000e+00 -1.163858489999999996e-01 -1.835648280000000132e-01 8.398228027000000040e+00
5.306042878999999601e+00 0.000000000000000000e+00 0.000000000000000000e+00 2.770702775999999812e+00 4.424348908999999885e+00 0.000000000000000000e+00 -2.219946469999999894e-01 -1.154859079999999982e-01 8.338888354999999919e+00
5.224904453999999809e+00 0.000000000000000000e+00 0.000000000000000000e+00 2.612479002000000161e+00 4.524885196999999692e+00 0.000000000000000000e+00 -5.999999999999999728e-07 -1.163999999999999994e-06 8.518148749999999936e+00
5.141304887999999629e+00 0.000000000000000000e+00 0.000000000000000000e+00 2.530731360999999957e+00 4.514540234000000041e+00 0.000000000000000000e+00 -1.162252869999999966e-01 -1.833115879999999975e-01 8.386642094999999131e+00
5.279084902000000135e+00 0.000000000000000000e+00 0.000000000000000000e+00 2.695550846999999806e+00 4.416478788000000044e+00 0.000000000000000000e+00 -1.428716100000000100e-01 -2.493365840000000000e-01 8.485410298999999767e+00
5.177349513000000236e+00 0.000000000000000000e+00 0.000000000000000000e+00 2.588701288000000211e+00 4.483701545999999816e+00 0.000000000000000000e+00 -5.940000000000000515e-07 -1.154000000000000090e-06 8.440620049999999708e+00
5.065115301999999708e+00 0.000000000000000000e+00 0.000000000000000000e+00 2.480426120999999817e+00 4.635806639000000118e+00 0.000000000000000000e+00 -4.513140399999999997e-02 -1.227153869999999952e-01 8.489394038000000364e+00
5.236603001999999840e+00 0.000000000000000000e+00 0.000000000000000000e+00 2.577640449000000000e+00 4.598220773999999622e+00 0.000000000000000000e+00 -1.183796139999999941e-01 -1.867094119999999913e-01 8.542095077000000813e+00
5.294566484999999822e+00 0.000000000000000000e+00 0.000000000000000000e+00 2.764710046999999893e+00 4.414779522999999983e+00 0.000000000000000000e+00 -2.215144960000000052e-01 -1.152361239999999953e-01 8.320852246999999480e+00