3.859420000000000073e+00 4.977599999999999802e-01 1.973859999999999948e+00 3.918600000000000083e+00 2.376269999999999882e+00 7.741000000000000658e-02 5.198109999999999786e+00 3.262760000000000105e+00 6.457370000000000054e+00 4.907099999999999795e+00 2.984529999999999905e+00 2.261050000000000004e+00 4.246290000000000120e+00 6.062800000000000411e-01 6.236239999999999561e+00 5.157040000000000290e+00 1.920399999999999885e-01 8.324619999999999465e+00 2.675330000000000208e+00 1.925000000000000044e-01 8.457969999999999544e+00 2.699040000000000106e+00 4.369229999999999947e+00 4.126719999999999722e+00 1.139329999999999954e+00 6.551700000000000301e-01 1.981260000000000021e+00 3.890390000000000015e+00 2.294410000000000061e+00 4.420049999999999812e+00 1.279209999999999958e+00 2.165880000000000027e+00 4.265710000000000335e+00 1.436909999999999910e+00 8.795100000000000140e-01 6.262080000000000091e+00 2.597109999999999808e+00 2.920999999999999985e-02 4.169730000000000381e+00 2.364590000000000192e+00 2.736169999999999991e+00 2.310869999999999980e+00 1.319339999999999957e+00 2.250020000000000131e+00 8.484870000000000800e+00 2.763889999999999958e+00 3.059009999999999785e+00 6.567719999999999558e+00
2.716299999999999937e+00 -1.094699999999999979e-01 8.527549999999999741e+00 1.446269999999999945e+00 4.404100000000000237e-01 2.261579999999999924e+00 3.863579999999999792e+00 7.565899999999999848e-01 6.406139999999999723e+00 5.240000000000000213e+00 -6.551999999999999491e-02 4.407569999999999766e+00 6.552489999999999704e+00 2.070539999999999825e+00 8.519099999999999895e+00 -2.562000000000000041e-02 -2.123800000000000132e-01 8.370210000000000150e+00 3.832329999999999792e+00 2.287920000000000176e+00 8.498459999999999681e+00 2.380869999999999820e+00 2.831929999999999836e+00 6.341179999999999595e+00 5.464500000000000135e+00 4.312219999999999942e+00 4.517210000000000392e+00 4.052179999999999893e+00 3.907700000000000062e-01 2.046499999999999986e+00 1.205209999999999892e+00 5.154999999999999583e-01 6.356539999999999857e+00 5.107249999999999623e+00 2.843760000000000066e+00 6.573290000000000077e+00 2.731059999999999821e+00 2.823500000000000121e+00 2.070980000000000043e+00 3.750980000000000203e+00 2.241179999999999950e+00 4.246800000000000352e+00 6.434569999999999901e+00 2.089010000000000034e+00 4.335770000000000124e+00 5.322829999999999728e+00 2.467119999999999980e+00 1.986129999999999951e+00
5.113000000000000433e+00 4.169360000000000177e+00 8.516159999999999286e+00 1.279290000000000038e+00 7.206399999999999473e-01 2.125020000000000131e+00 3.914299999999999891e+00 2.124800000000000022e-01 6.270739999999999981e+00 5.391980000000000217e+00 2.938799999999999746e-01 4.375799999999999912e+00 1.512950000000000017e+00 2.177810000000000024e+00 6.020999999999999963e-02 7.724499999999999922e+00 4.165709999999999802e+00 8.347879999999999967e+00 4.038170000000000037e+00 2.283570000000000100e+00 4.632000000000000006e-02 2.611060000000000159e+00 2.314740000000000020e+00 6.518989999999999618e+00 2.622889999999999944e+00 3.545200000000000018e-01 4.016740000000000421e+00 3.752320000000000100e+00 7.205500000000000238e-01 1.909810000000000008e+00 1.320899999999999963e+00 8.074000000000000621e-02 6.268819999999999837e+00 5.216750000000000220e+00 2.311300000000000132e+00 6.490359999999999907e+00 2.625020000000000131e+00 2.933469999999999800e+00 2.334779999999999855e+00 3.935890000000000111e+00 2.397629999999999928e+00 4.324060000000000237e+00 6.558740000000000236e+00 2.587819999999999787e+00 4.444079999999999586e+00 5.267319999999999780e+00 2.816409999999999858e+00 2.111139999999999795e+00
3.710609999999999964e+00 9.005699999999999816e-01 2.119530000000000136e+00 3.939200000000000035e+00 2.337130000000000152e+00 8.440390000000000725e+00 5.290399999999999991e+00 3.041240000000000165e+00 6.382500000000000284e+00 5.181300000000000239e+00 3.011989999999999945e+00 2.140969999999999818e+00 4.000219999999999665e+00 9.308499999999999552e-01 6.373380000000000045e+00 7.682310000000000194e+00 4.402800000000000047e+00 8.916000000000000314e-02 2.665230000000000210e+00 1.802000000000000129e-02 8.408630000000000493e+00 2.874870000000000037e+00 4.315089999999999648e+00 4.102140000000000342e+00 1.151750000000000052e+00 7.550000000000000044e-01 2.062019999999999964e+00 4.057559999999999611e+00 2.319090000000000096e+00 4.189390000000000391e+00 6.456299999999999706e+00 2.404570000000000096e+00 4.279709999999999681e+00 1.164749999999999952e+00 6.678300000000000347e-01 6.427500000000000213e+00 5.295620000000000438e+00 4.353790000000000049e+00 4.280369999999999564e+00 2.396170000000000133e+00 3.023649999999999949e+00 2.193080000000000140e+00 1.296040000000000081e+00 2.047860000000000014e+00 8.391540000000000887e+00 2.615180000000000060e+00 2.983919999999999906e+00 6.388690000000000424e+00
4.735360000000000014e+00 5.902000000000000302e-02 1.600000000000000131e-04 2.356189999999999785e+00 3.122980000000000089e+00 2.116540000000000088e+00 2.705849999999999866e+00 4.423600000000000421e+00 4.207469999999999821e+00 4.606510000000000105e+00 4.427469999999999573e+00 1.147500000000000048e-01 3.482479999999999798e+00 7.092500000000000471e-01 2.005999999999999783e+00 1.322179999999999911e+00 2.184009999999999785e+00 4.065010000000000012e+00 3.990310000000000024e+00 6.934799999999999853e-01 6.404840000000000089e+00 1.328470000000000040e+00 7.976400000000000157e-01 6.333820000000000228e+00 2.718659999999999854e+00 2.961129999999999818e+00 6.214389999999999858e+00 5.061910000000000132e+00 3.100099999999999856e+00 6.331380000000000230e+00 4.844260000000000232e+00 3.118009999999999948e+00 2.169239999999999835e+00 6.146399999999999864e+00 2.142910000000000093e+00 1.335999999999999965e-01 1.066850000000000076e+00 7.579099999999999726e-01 2.191590000000000149e+00 5.157449999999999868e+00 4.546420000000000350e+00 4.128610000000000113e+00 4.027490000000000236e+00 2.312619999999999898e+00 4.164850000000000385e+00 3.690249999999999808e+00 2.328590000000000160e+00 7.609000000000000485e-02
2.516840000000000188e+00 4.447350000000000136e+00 4.880999999999999922e-02 2.566790000000000127e+00 3.229919999999999902e+00 2.081830000000000069e+00 2.409829999999999917e+00 4.401340000000000252e+00 4.202729999999999855e+00 5.029810000000000336e+00 4.430769999999999875e+00 8.274039999999999395e+00 3.774719999999999853e+00 7.707399999999999807e-01 1.949289999999999967e+00 5.969149999999999956e+00 2.174500000000000099e+00 4.196939999999999671e+00 3.793000000000000149e+00 7.753900000000000237e-01 6.241360000000000241e+00 1.108249999999999957e+00 6.902599999999999847e-01 6.312369999999999592e+00 2.409139999999999837e+00 3.008210000000000051e+00 6.264479999999999826e+00 4.884909999999999641e+00 3.021349999999999980e+00 6.312509999999999621e+00 4.970609999999999751e+00 3.024199999999999999e+00 2.077609999999999957e+00 1.309430000000000094e+00 2.220950000000000202e+00 6.879000000000000392e-02 1.275940000000000074e+00 8.394000000000000350e-01 2.191019999999999968e+00 4.814110000000000333e+00 4.449340000000000295e+00 4.161979999999999791e+00 3.724660000000000082e+00 2.130729999999999791e+00 4.212720000000000020e+00 3.689049999999999940e+00 2.266849999999999810e+00 9.515999999999999459e-02
2.623559999999999892e+00 -2.363999999999999990e-01 8.391299999999999315e+00 1.349800000000000111e+00 5.874399999999999622e-01 2.010339999999999794e+00 3.776180000000000092e+00 5.035300000000000331e-01 6.373149999999999871e+00 5.094229999999999592e+00 -6.385000000000000397e-02 4.256339999999999790e+00 6.345449999999999591e+00 1.754180000000000073e+00 8.246399999999999508e+00 7.889240000000000030e+00 4.383420000000000094e+00 1.875999999999999890e-02 4.071200000000000152e+00 2.224479999999999791e+00 1.505799999999999916e-01 2.526980000000000004e+00 2.742189999999999905e+00 6.429429999999999978e+00 2.416549999999999976e+00 2.500000000000000052e-03 4.281060000000000088e+00 3.995929999999999982e+00 6.651099999999999790e-01 2.250560000000000116e+00 1.114290000000000003e+00 5.118000000000000327e-01 6.365339999999999776e+00 5.146589999999999776e+00 2.600150000000000183e+00 6.358319999999999972e+00 2.728369999999999962e+00 3.022800000000000153e+00 2.232740000000000169e+00 4.078750000000000320e+00 2.205600000000000005e+00 4.242880000000000429e+00 6.593840000000000146e+00 2.326340000000000074e+00 4.211289999999999978e+00 5.471870000000000012e+00 2.773649999999999949e+00 2.074990000000000112e+00
2.431059999999999999e+00 1.844800000000000051e-01 4.230129999999999946e+00 1.045889999999999986e+00 7.663600000000000412e-01 2.070520000000000138e+00 7.701559999999999739e+00 4.324189999999999756e+00 4.183110000000000106e+00 2.979330000000000034e+00 5.675999999999999795e-02 8.899999999999999491e-04 6.542559999999999931e+00 2.114040000000000141e+00 3.966019999999999879e+00 3.929429999999999978e+00 5.921499999999999542e-01 6.323260000000000325e+00 3.785789999999999988e+00 2.143279999999999852e+00 4.255300000000000082e+00 1.146269999999999900e+00 6.154399999999999871e-01 6.333730000000000082e+00 3.841299999999999937e+00 8.619400000000000395e-01 2.150669999999999860e+00 2.918210000000000193e+00 4.257950000000000124e+00 8.347310000000000230e+00 1.402209999999999956e+00 2.046549999999999869e+00 8.372429999999999595e+00 5.313270000000000159e+00 2.666980000000000128e+00 6.297299999999999898e+00 4.354210000000000136e+00 2.123790000000000067e+00 8.308000000000000107e-02 5.320689999999999920e+00 3.116940000000000044e+00 2.051280000000000214e+00 2.481599999999999806e+00 3.165179999999999882e+00 2.062390000000000168e+00 2.534650000000000070e+00 2.647549999999999848e+00 6.284889999999999866e+00
5.117950000000000443e+00 4.250989999999999824e+00 4.030439999999999579e+00 1.264229999999999965e+00 7.172800000000000287e-01 2.097409999999999997e+00 5.160820000000000185e+00 -1.580000000000000154e-02 4.310399999999999565e+00 2.654380000000000184e+00 6.288000000000000533e-02 7.206999999999999518e-02 6.578050000000000175e+00 2.266799999999999926e+00 4.173670000000000435e+00 3.848920000000000119e+00 3.933699999999999974e-01 6.187850000000000072e+00 3.926289999999999836e+00 2.171219999999999928e+00 4.100450000000000372e+00 1.014159999999999950e+00 5.640300000000000313e-01 6.148920000000000385e+00 3.966250000000000053e+00 8.646899999999999586e-01 2.154450000000000198e+00 5.016610000000000014e+00 -1.017000000000000022e-02 8.172420000000000684e+00 1.486769999999999925e+00 2.148499999999999854e+00 4.559999999999999817e-03 5.177880000000000038e+00 2.829299999999999926e+00 6.277190000000000047e+00 4.102560000000000429e+00 2.334589999999999943e+00 6.553000000000000491e-02 5.369729999999999670e+00 2.833400000000000141e+00 2.036560000000000148e+00 2.713639999999999830e+00 3.116490000000000204e+00 2.134189999999999809e+00 2.688419999999999810e+00 2.640530000000000044e+00 6.268620000000000303e+00
5.147339999999999804e+00 4.272090000000000387e+00 4.198999999999999955e-02 1.120039999999999925e+00 6.770599999999999952e-01 2.217519999999999936e+00 3.909949999999999815e+00 4.033300000000000218e-01 6.380119999999999791e+00 5.214669999999999916e+00 1.349000000000000025e-02 4.244100000000000428e+00 6.545989999999999753e+00 2.229919999999999902e+00 5.172000000000000208e-02 2.675320000000000142e+00 4.356819999999999915e+00 2.571999999999999981e-02 3.616309999999999913e+00 1.801830000000000043e+00 8.370520000000000849e+00 2.486819999999999808e+00 2.588509999999999867e+00 6.282219999999999693e+00 2.552200000000000024e+00 2.528999999999999998e-02 4.282079999999999664e+00 4.018259999999999721e+00 5.910199999999999898e-01 1.864729999999999999e+00 1.037069999999999936e+00 5.347100000000000186e-01 6.197729999999999961e+00 5.300849999999999618e+00 2.629210000000000047e+00 6.332790000000000141e+00 2.705189999999999984e+00 2.777340000000000142e+00 1.925769999999999982e+00 3.853120000000000100e+00 2.113550000000000040e+00 4.220419999999999838e+00 1.444579999999999975e+00 2.276100000000000012e+00 4.222290000000000099e+00 5.207320000000000171e+00 3.024900000000000144e+00 2.058190000000000186e+00
2.490419999999999856e+00 -6.530000000000000214e-03 4.316639999999999588e+00 1.108740000000000059e+00 7.800399999999999556e-01 1.964579999999999993e+00 5.235509999999999664e+00 5.485999999999999904e-02 4.108690000000000175e+00 2.421100000000000030e+00 -6.060999999999999721e-02 8.332069999999999865e+00 1.424430000000000085e+00 2.297489999999999810e+00 4.249729999999999563e+00 3.857720000000000038e+00 6.722200000000000397e-01 6.149250000000000327e+00 3.909839999999999982e+00 2.055019999999999847e+00 4.128890000000000171e+00 1.131610000000000005e+00 8.336599999999999566e-01 6.304260000000000197e+00 3.957440000000000069e+00 4.948199999999999821e-01 2.281390000000000029e+00 2.852209999999999912e+00 4.177889999999999660e+00 9.170999999999999985e-02 6.419019999999999726e+00 2.164940000000000087e+00 8.280239999999999156e+00 5.151200000000000223e+00 2.906590000000000007e+00 6.240579999999999572e+00 4.125230000000000175e+00 1.961370000000000058e+00 8.241559999999999775e+00 5.207099999999999618e+00 2.990940000000000154e+00 2.090879999999999850e+00 2.741089999999999804e+00 2.905650000000000066e+00 2.047140000000000182e+00 2.537809999999999899e+00 2.819179999999999797e+00 6.355450000000000266e+00
5.293779999999999930e+00 4.139999999999999680e+00 4.213510000000000311e+00 1.114000000000000101e+00 5.676299999999999679e-01 2.276780000000000026e+00 4.718320000000000292e+00 3.077129999999999921e+00 1.835660000000000069e+00 4.168980000000000352e+00 1.877399999999999958e+00 4.050810000000000244e+00 2.388780000000000125e+00 1.861500000000000099e-01 1.760000000000000063e-03 2.252549999999999830e+00 2.802140000000000075e+00 2.203530000000000211e+00 1.381429999999999936e+00 7.463800000000000434e-01 6.106349999999999945e+00 5.115300000000000402e+00 2.953800000000000203e+00 6.376089999999999591e+00 6.413780000000000037e+00 2.672839999999999883e+00 7.090000000000000469e-02 3.875169999999999781e+00 5.958700000000000108e-01 6.194449999999999790e+00 3.571619999999999795e+00 2.075610000000000177e+00 8.206469999999999487e+00 5.046439999999999593e+00 2.543599999999999750e-01 1.161699999999999955e-01 3.584729999999999972e+00 5.248699999999999477e-01 2.205179999999999918e+00 2.441889999999999894e+00 3.122349999999999959e+00 6.300729999999999720e+00 2.742440000000000211e+00 4.252239999999999576e+00 4.338009999999999700e+00 1.411359999999999948e+00 2.008640000000000203e+00 4.294920000000000293e+00
2.465430000000000010e+00 4.457950000000000301e+00 2.590999999999999900e-02 2.449469999999999814e+00 3.029920000000000169e+00 2.151959999999999873e+00 2.380009999999999959e+00 4.347080000000000055e+00 4.201570000000000249e+00 4.988999999999999879e+00 4.340910000000000046e+00 8.379229999999999734e+00 3.844100000000000072e+00 7.658599999999999852e-01 1.915419999999999900e+00 1.243819999999999926e+00 2.215700000000000003e+00 4.274729999999999919e+00 3.817250000000000032e+00 7.810899999999999510e-01 6.076120000000000410e+00 1.396600000000000064e+00 7.061199999999999699e-01 6.501689999999999969e+00 2.356500000000000039e+00 3.115169999999999995e+00 6.339529999999999887e+00 4.803149999999999586e+00 3.102660000000000196e+00 6.344710000000000072e+00 4.922629999999999839e+00 3.246030000000000193e+00 2.125010000000000066e+00 1.131629999999999914e+00 2.056400000000000006e+00 8.364720000000000155e+00 1.196269999999999945e+00 9.283500000000000085e-01 2.285130000000000106e+00 5.028270000000000017e+00 4.394400000000000084e+00 3.903979999999999784e+00 3.543480000000000185e+00 2.137100000000000222e+00 4.148740000000000094e+00 3.748260000000000147e+00 2.234440000000000204e+00 1.972099999999999964e-01
2.547489999999999810e+00 -2.250099999999999878e-01 8.379490000000000549e+00 1.392709999999999892e+00 6.351400000000000379e-01 1.975989999999999913e+00 3.807409999999999961e+00 4.987900000000000111e-01 6.352920000000000122e+00 5.045480000000000409e+00 6.812999999999999612e-02 4.190339999999999954e+00 1.405280000000000085e+00 1.985950000000000104e+00 8.372519999999999740e+00 2.831399999999999917e+00 4.260279999999999845e+00 8.222000000000000142e-02 4.176669999999999661e+00 2.101789999999999825e+00 7.696000000000000063e-02 2.366919999999999913e+00 2.709159999999999791e+00 6.290670000000000428e+00 5.099079999999999835e+00 4.184359999999999857e+00 4.127679999999999794e+00 4.143080000000000318e+00 6.099900000000000322e-01 2.056919999999999860e+00 1.252490000000000103e+00 4.661899999999999933e-01 6.296929999999999694e+00 4.944270000000000387e+00 2.682970000000000077e+00 6.398760000000000225e+00 2.731819999999999915e+00 2.972570000000000157e+00 2.088649999999999896e+00 3.593649999999999789e+00 2.187860000000000138e+00 4.218519999999999825e+00 6.346960000000000157e+00 1.968360000000000110e+00 4.252919999999999590e+00 5.173070000000000057e+00 3.049049999999999816e+00 2.140249999999999986e+00
2.567340000000000177e+00 6.504999999999999671e-02 1.779999999999999985e-02 1.187969999999999970e+00 6.813299999999999912e-01 2.177820000000000089e+00 3.725340000000000096e+00 6.118999999999999995e-01 6.248730000000000118e+00 -4.102000000000000091e-02 -1.191900000000000043e-01 4.173569999999999780e+00 6.335060000000000358e+00 1.986979999999999968e+00 8.267620000000000857e+00 2.626339999999999897e+00 4.122630000000000017e+00 3.198000000000000148e-02 4.042349999999999888e+00 2.077659999999999840e+00 3.004000000000000073e-02 2.474310000000000009e+00 2.640120000000000022e+00 6.199069999999999858e+00 2.614459999999999784e+00 -5.100999999999999979e-02 4.144140000000000157e+00 3.901460000000000150e+00 6.743700000000000250e-01 2.208889999999999798e+00 1.117220000000000102e+00 3.275399999999999978e-01 6.355859999999999843e+00 5.241050000000000431e+00 2.744759999999999867e+00 6.313430000000000319e+00 2.616709999999999869e+00 2.916150000000000020e+00 1.951969999999999983e+00 3.943169999999999842e+00 2.127229999999999954e+00 4.164740000000000109e+00 6.400100000000000122e+00 2.106660000000000199e+00 4.213379999999999903e+00 5.252329999999999721e+00 2.956910000000000149e+00 2.039250000000000007e+00
3.942849999999999966e+00 9.861900000000000110e-01 2.302770000000000206e+00 3.860520000000000174e+00 2.190399999999999903e+00 8.360770000000000479e+00 5.112510000000000332e+00 2.846499999999999808e+00 6.372690000000000410e+00 5.407700000000000173e+00 3.121360000000000134e+00 2.214620000000000033e+00 3.811599999999999877e+00 3.710700000000000109e-01 6.548470000000000013e+00 9.375000000000000000e-02 4.565999999999999920e-02 1.192899999999999933e-01 2.592080000000000162e+00 1.752199999999999869e-01 1.306700000000000084e-01 2.727619999999999933e+00 4.456929999999999836e+00 4.323710000000000164e+00 1.282480000000000064e+00 8.421600000000000197e-01 2.341110000000000024e+00 4.008670000000000400e+00 2.383360000000000145e+00 4.111780000000000435e+00 6.376999999999999780e+00 2.374870000000000037e+00 4.256649999999999601e+00 1.322689999999999921e+00 4.853799999999999781e-01 6.331279999999999575e+00 2.641579999999999817e+00 1.932399999999999951e-01 4.243619999999999948e+00 2.917209999999999859e+00 3.035569999999999879e+00 1.923010000000000108e+00 6.428530000000000300e+00 2.401400000000000201e+00 8.393929999999999225e+00 2.414439999999999920e+00 2.789860000000000007e+00 6.269569999999999865e+00
2.608119999999999994e+00 7.069999999999999896e-03 4.190120000000000289e+00 1.077919999999999989e+00 7.817600000000000104e-01 2.248489999999999878e+00 5.178749999999999964e+00 2.773019999999999818e+00 2.083899999999999864e+00 3.934820000000000206e+00 2.112470000000000070e+00 4.315850000000000186e+00 4.970509999999999984e+00 4.469940000000000246e+00 3.701999999999999735e-02 2.583769999999999900e+00 2.877510000000000012e+00 2.020919999999999828e+00 1.389629999999999921e+00 7.735800000000000454e-01 6.439189999999999969e+00 5.139499999999999957e+00 2.909590000000000121e+00 6.318089999999999762e+00 1.237919999999999909e+00 2.195939999999999781e+00 8.372849999999999682e+00 3.651240000000000041e+00 6.408000000000000362e-01 6.432859999999999800e+00 3.881679999999999797e+00 2.182990000000000208e+00 7.681000000000000327e-02 4.961120000000000196e+00 -5.088999999999999774e-02 8.416259999999999408e+00 3.658669999999999867e+00 5.718999999999999639e-01 2.117150000000000087e+00 2.441549999999999887e+00 2.994949999999999779e+00 6.325700000000000323e+00 2.678889999999999993e+00 4.457770000000000010e+00 4.283970000000000056e+00 1.324410000000000087e+00 2.267079999999999984e+00 4.129030000000000200e+00
5.037390000000000256e+00 9.062000000000000610e-02 5.170000000000000116e-03 2.313000000000000167e+00 3.119610000000000216e+00 2.165939999999999976e+00 2.548449999999999882e+00 4.442370000000000374e+00 4.154029999999999667e+00 2.458759999999999835e+00 -5.578999999999999931e-02 8.385080000000000311e+00 3.522639999999999993e+00 6.563499999999999890e-01 2.275850000000000151e+00 1.373890000000000056e+00 2.287560000000000038e+00 4.140030000000000321e+00 3.663549999999999862e+00 6.173699999999999743e-01 6.465419999999999945e+00 1.246590000000000087e+00 6.463799999999999546e-01 6.292869999999999742e+00 2.420189999999999841e+00 2.948430000000000106e+00 6.210989999999999789e+00 5.023679999999999701e+00 2.994720000000000049e+00 6.354499999999999815e+00 4.859110000000000262e+00 2.917530000000000179e+00 2.003239999999999910e+00 6.156360000000000277e+00 2.346080000000000165e+00 1.413999999999999979e-02 1.233880000000000088e+00 5.631199999999999539e-01 2.000269999999999992e+00 2.733649999999999913e+00 8.323999999999999455e-02 4.409749999999999837e+00 3.715450000000000141e+00 2.224340000000000206e+00 4.148119999999999585e+00 3.665160000000000196e+00 2.205459999999999976e+00 8.202130000000000365e+00
5.250810000000000421e+00 4.281659999999999577e+00 4.162219999999999587e+00 1.550200000000000022e+00 6.607499999999999485e-01 2.030199999999999783e+00 5.100799999999999557e+00 -1.234000000000000027e-02 4.123540000000000205e+00 2.390140000000000153e+00 5.482000000000000067e-02 8.259119999999999351e+00 1.354700000000000015e+00 2.230119999999999880e+00 4.125779999999999781e+00 3.756790000000000074e+00 5.522200000000000442e-01 6.099910000000000387e+00 3.842060000000000031e+00 2.304409999999999847e+00 4.236769999999999925e+00 1.169499999999999984e+00 4.794700000000000073e-01 6.355400000000000382e+00 4.183709999999999596e+00 7.617300000000000182e-01 2.200720000000000010e+00 5.052570000000000228e+00 -8.959000000000000297e-02 8.351110000000000255e+00 6.683779999999999610e+00 2.279469999999999885e+00 8.940000000000000030e-03 5.212589999999999613e+00 2.680670000000000108e+00 6.292130000000000223e+00 4.048440000000000261e+00 2.301820000000000199e+00 1.393699999999999939e-01 5.294389999999999930e+00 3.028900000000000148e+00 2.132200000000000095e+00 2.702490000000000059e+00 2.944700000000000095e+00 1.913450000000000095e+00 2.490409999999999791e+00 2.692720000000000002e+00 6.367919999999999803e+00
2.592740000000000045e+00 7.685999999999999777e-02 8.343030000000000612e+00 1.289490000000000025e+00 4.322900000000000076e-01 2.272269999999999790e+00 3.837489999999999846e+00 7.270600000000000396e-01 6.269929999999999559e+00 7.726110000000000255e+00 4.262240000000000251e+00 4.145679999999999588e+00 6.612000000000000099e+00 2.386989999999999945e+00 1.422599999999999976e-01 6.463000000000000689e-02 -8.558000000000000329e-02 8.413140000000000285e+00 4.117280000000000051e+00 2.360710000000000086e+00 1.725500000000000089e-01 2.465730000000000199e+00 2.823059999999999903e+00 6.532580000000000275e+00 5.272249999999999659e+00 4.269589999999999996e+00 4.215060000000000251e+00 3.880640000000000089e+00 4.708899999999999753e-01 2.055740000000000123e+00 1.119660000000000100e+00 6.329399999999999471e-01 6.242460000000000342e+00 5.067370000000000374e+00 2.893660000000000121e+00 6.415639999999999787e+00 2.748909999999999965e+00 2.661770000000000191e+00 2.120499999999999829e+00 4.013880000000000337e+00 1.859070000000000000e+00 4.025330000000000297e+00 1.356980000000000075e+00 1.996110000000000051e+00 4.288979999999999571e+00 5.212229999999999919e+00 2.663499999999999979e+00 2.261639999999999873e+00
2.397370000000000001e+00 4.252519999999999634e+00 8.317019999999999413e+00 2.337849999999999984e+00 3.243510000000000115e+00 2.106660000000000199e+00 5.035309999999999953e+00 2.364999999999999880e-01 4.201999999999999957e+00 4.969400000000000261e+00 4.493719999999999715e+00 8.485170000000000101e+00 3.780609999999999804e+00 1.048589999999999911e+00 2.135549999999999837e+00 6.248910000000000409e+00 2.283180000000000209e+00 4.259210000000000385e+00 3.686739999999999906e+00 6.285300000000000331e-01 6.491670000000000051e+00 1.211510000000000087e+00 5.911100000000000243e-01 6.464739999999999931e+00 2.844549999999999912e+00 2.893940000000000179e+00 6.481489999999999974e+00 5.238839999999999719e+00 2.822459999999999969e+00 6.547570000000000334e+00 4.876669999999999838e+00 3.075489999999999835e+00 1.975249999999999950e+00 1.251239999999999908e+00 2.133570000000000189e+00 1.234200000000000019e-01 1.272529999999999939e+00 7.846400000000000041e-01 2.011029999999999873e+00 2.548729999999999940e+00 5.732000000000000289e-02 4.411780000000000257e+00 3.814529999999999976e+00 2.506440000000000001e+00 4.298060000000000436e+00 3.793979999999999908e+00 2.154189999999999827e+00 6.009999999999999717e-03
5.103659999999999641e+00 4.345110000000000028e+00 4.114209999999999923e+00 1.002269999999999994e+00 6.959899999999999975e-01 2.173239999999999839e+00 5.009159999999999613e+00 2.821829999999999838e+00 2.052779999999999827e+00 3.819440000000000168e+00 2.166739999999999888e+00 4.036629999999999718e+00 2.427090000000000192e+00 1.165699999999999931e-01 5.482999999999999680e-02 2.445939999999999781e+00 2.908450000000000202e+00 2.176429999999999865e+00 1.362530000000000019e+00 6.475600000000000245e-01 6.408459999999999823e+00 5.184499999999999886e+00 2.924539999999999917e+00 6.306280000000000108e+00 6.199110000000000120e+00 2.469710000000000072e+00 6.393000000000000071e-02 3.847589999999999844e+00 6.814200000000000257e-01 6.330259999999999998e+00 3.621659999999999879e+00 2.191800000000000193e+00 8.391750000000000043e+00 7.393600000000000172e+00 4.342550000000000132e+00 8.383020000000000138e+00 3.926419999999999799e+00 5.871499999999999497e-01 2.099689999999999834e+00 2.562629999999999963e+00 3.059029999999999916e+00 6.247740000000000293e+00 2.767689999999999984e+00 4.287209999999999965e+00 4.240619999999999834e+00 1.342780000000000085e+00 1.997489999999999988e+00 4.199639999999999596e+00
3.764079999999999870e+00 6.255500000000000504e-01 2.194960000000000022e+00 3.902600000000000069e+00 2.228070000000000217e+00 8.259029999999999205e+00 5.081590000000000273e+00 2.902260000000000062e+00 6.237729999999999997e+00 5.115649999999999586e+00 2.879059999999999953e+00 2.115689999999999849e+00 3.858299999999999841e+00 7.317500000000000115e-01 6.183720000000000105e+00 2.624670000000000059e+00 4.395039999999999836e+00 6.069999999999999701e-02 5.135080000000000311e+00 4.339129999999999932e+00 3.717000000000000165e-02 5.147039999999999615e+00 1.355600000000000138e-01 4.057439999999999714e+00 1.221200000000000063e+00 7.508000000000000229e-01 2.114580000000000126e+00 3.810049999999999937e+00 2.460059999999999913e+00 4.152440000000000353e+00 6.392030000000000101e+00 2.323830000000000062e+00 4.165580000000000283e+00 1.338619999999999921e+00 6.870300000000000296e-01 6.279810000000000336e+00 4.948990000000000222e+00 4.388020000000000032e+00 4.097070000000000434e+00 2.584049999999999958e+00 2.785480000000000178e+00 2.090889999999999915e+00 1.319779999999999953e+00 2.194739999999999913e+00 2.309999999999999901e-02 2.412980000000000125e+00 2.983680000000000110e+00 6.138119999999999798e+00
2.428850000000000176e+00 3.336999999999999689e-02 4.156740000000000101e+00 1.091860000000000053e+00 8.899700000000000388e-01 2.063299999999999912e+00 5.188970000000000304e+00 8.408000000000000196e-02 4.246559999999999668e+00 5.719269999999999854e+00 4.305710000000000370e+00 4.399999999999999745e-02 6.568730000000000402e+00 2.347729999999999873e+00 4.232129999999999725e+00 3.779549999999999965e+00 4.470799999999999774e-01 6.204130000000000145e+00 3.950909999999999922e+00 2.185070000000000068e+00 4.080790000000000362e+00 1.337139999999999995e+00 5.345699999999999896e-01 6.300569999999999560e+00 3.858299999999999841e+00 9.247499999999999609e-01 2.240040000000000031e+00 2.693599999999999994e+00 4.187120000000000175e+00 8.345010000000000261e+00 1.452649999999999997e+00 2.014949999999999797e+00 8.301310000000000855e+00 5.124489999999999768e+00 2.686350000000000016e+00 6.213289999999999758e+00 3.903979999999999784e+00 1.978699999999999903e+00 8.317019999999999413e+00 5.204959999999999809e+00 3.038289999999999935e+00 2.017310000000000159e+00 2.538899999999999935e+00 3.231970000000000010e+00 2.199939999999999785e+00 2.567019999999999857e+00 2.625189999999999912e+00 6.302830000000000155e+00