-5.803862981999999704e+01
-5.804396652999999873e+01
-5.826748140000000120e+01
-5.817238564000000167e+01
-5.804465799999999831e+01
-5.859089132999999805e+01
-5.833436978000000295e+01
-5.810362165000000090e+01
-5.838537742999999836e+01
-5.795832137000000017e+01
-5.812360907000000054e+01
-5.754816999999999894e+01
-5.757862664999999680e+01
-5.815038031999999646e+01
-5.860570771999999806e+01
-5.786283462000000100e+01
-5.826236844999999676e+01
-5.795548797000000008e+01
-5.829133242000000337e+01
-5.817220342000000244e+01
-5.784880074000000150e+01
-5.820096625000000046e+01
-5.862221945000000289e+01
-5.843061388999999650e+01
-5.828560387999999648e+01
-5.848584620999999828e+01
-5.791671597999999932e+01
-5.833874346999999716e+01
-5.808278414000000112e+01
-5.848482597999999655e+01
-5.847004084000000290e+01
-5.851414450000000045e+01
-5.831881314999999688e+01
-5.825069912000000016e+01
-5.790482736999999958e+01
-5.796522239000000098e+01
-5.794162647999999649e+01
-5.836192802000000057e+01
-5.824696185999999898e+01
-5.853863738999999811e+01
-5.821547847000000075e+01
-5.809407307000000031e+01
-5.849638579999999877e+01
-5.832750586000000226e+01
-5.802719713999999840e+01
-5.798059022999999712e+01
-5.782870573000000292e+01
-5.794613609999999682e+01
-5.843347902000000005e+01
-5.842402796999999737e+01
-5.787232608000000056e+01
-5.794196103000000164e+01
-5.834415590999999779e+01
-5.791812824000000148e+01
-5.803781142999999787e+01
-5.793309173000000101e+01
-5.837438116999999949e+01
-5.811614171000000084e+01
-5.827682959999999923e+01
-5.857394192999999660e+01
-5.808086895000000283e+01
-5.847016136999999958e+01
-5.811421977999999910e+01
-5.828740772999999820e+01
-5.806448431999999826e+01
-5.824135995000000321e+01
-5.828024930000000126e+01
-5.822258232000000078e+01
-5.832494822000000312e+01
-5.837217497000000321e+01
-5.769837193000000042e+01
-5.854084524000000300e+01
-5.782652525000000310e+01
-5.781020397000000344e+01
-5.843810467000000131e+01
-5.767682197999999971e+01
-5.827967536999999965e+01
-5.824064492000000115e+01
-5.825514575999999778e+01
-5.813208877000000285e+01
-5.816311573000000124e+01
-5.865642460000000113e+01
-5.831709845999999686e+01
-5.804819386999999864e+01
-5.825215077000000008e+01
-5.837137690000000134e+01
-5.831122134000000301e+01
-5.789093900999999676e+01
-5.826503217999999862e+01
-5.841067712000000256e+01
-5.781071742999999685e+01
-5.798348675999999813e+01
-5.792662598999999801e+01
-5.770181348999999926e+01
-5.854374755999999991e+01
-5.790543395000000260e+01
-5.828014046999999920e+01
-5.824696203999999966e+01
-5.827964757000000162e+01
-5.855391119000000089e+01
-5.806476193000000308e+01
-5.768480265000000173e+01
-5.757386991999999992e+01
-5.781949632999999977e+01
-5.793786795999999839e+01
-5.780751845000000344e+01
-5.836417715000000328e+01
-5.840510460000000137e+01
-5.822532417000000038e+01
-5.828468961000000093e+01
-5.830494563999999968e+01
-5.781944380000000194e+01
-5.767246643000000006e+01
-5.814193110000000075e+01
-5.822517516999999998e+01
-5.822847220999999962e+01
-5.827998113000000302e+01
-5.811721799000000033e+01
-5.798560367999999698e+01
-5.794526516999999899e+01
-5.771956562999999818e+01
-5.845395707000000129e+01
-5.829561513000000161e+01
-5.790378330000000062e+01
-5.816985342000000259e+01
-5.803470360000000028e+01
-5.805808780000000269e+01
-5.837711845999999838e+01
-5.849370935000000316e+01
-5.807657602999999824e+01
-5.805450036999999952e+01
-5.831464113999999910e+01
-5.796804489000000160e+01
-5.802954807999999787e+01
-5.853071010000000030e+01
-5.800482291000000146e+01
-5.857275948000000199e+01
-5.775535856999999851e+01
-5.850583686000000228e+01
-5.823357078000000087e+01
-5.830200759000000232e+01
-5.839894594999999811e+01
-5.806867955999999964e+01
-5.879082662999999798e+01
-5.792207841999999829e+01
-5.820659201000000138e+01
-5.799936458999999900e+01
-5.762651128000000256e+01
-5.821213939999999809e+01
-5.839076629000000196e+01
-5.876684766999999709e+01
-5.810686152000000249e+01
-5.783456240000000292e+01
-5.819785471000000143e+01
-5.816741766999999896e+01
-5.848076188999999658e+01
-5.834216484000000236e+01
-5.784109162000000026e+01
-5.822647377999999918e+01
-5.785229987999999679e+01
-5.829662651999999667e+01
-5.793703818000000183e+01
-5.821439277999999717e+01
-5.849973760999999683e+01
-5.816566023000000030e+01
-5.823246610999999717e+01
-5.831846698999999745e+01
-5.848261947999999677e+01
-5.811463069999999931e+01
-5.824838079999999962e+01
-5.852767951999999951e+01
-5.865044034000000295e+01
-5.882815903000000191e+01
-5.753692490000000248e+01
-5.856106970999999817e+01
-5.820970987999999835e+01
-5.800790626999999944e+01
-5.846048523000000330e+01
-5.768105454999999893e+01
-5.803463092999999873e+01
-5.804978512999999651e+01
-5.798147106999999778e+01
-5.811184217000000274e+01
-5.802701539000000253e+01
-5.791729593000000165e+01
-5.802794646000000256e+01
-5.819622512000000114e+01
-5.820117301999999881e+01
-5.770984090000000322e+01
-5.802112439999999793e+01
-5.843589455000000044e+01
-5.846699440999999808e+01
-5.842054132999999894e+01
-5.799968239999999753e+01
-5.827155168000000174e+01
-5.805420377000000087e+01
-5.826818117999999913e+01
-5.818742230000000148e+01
-5.837496469999999960e+01
-5.821612314000000055e+01
-5.831873730000000222e+01
-5.828889374999999973e+01
-5.830874967999999825e+01
-5.826919059000000090e+01
-5.759838237999999677e+01
-5.830514124999999837e+01
-5.794990614999999679e+01
-5.793829453000000029e+01
-5.795094560999999800e+01
-5.827277619000000186e+01
-5.794835396999999944e+01
-5.803064222999999799e+01
-5.821272068999999760e+01
-5.784822834999999941e+01
-5.819253425000000135e+01
-5.815104251000000346e+01
-5.833698437000000325e+01
-5.800480519999999984e+01
-5.836946468000000010e+01
-5.801498758000000322e+01
-5.795785628000000145e+01
-5.831258110000000272e+01
-5.799772491000000230e+01
-5.804042468000000099e+01
-5.805750100000000202e+01
-5.811773482000000257e+01
-5.840181998999999990e+01
-5.818570007000000288e+01
-5.757008306000000175e+01
-5.804978948000000116e+01
-5.821723541000000068e+01
-5.836959554999999966e+01
-5.827649197000000214e+01
-5.799947061999999676e+01
-5.851459324000000350e+01
-5.821941900000000203e+01
-5.775549835000000343e+01
-5.832535826000000156e+01
-5.794598016999999857e+01
-5.855104582999999963e+01
-5.839225400000000121e+01
-5.816677393999999879e+01
-5.811633716000000049e+01
-5.818288238000000234e+01
-5.800543187000000245e+01
-5.777140262999999720e+01
-5.858454112999999808e+01
-5.791043793000000051e+01
-5.806560234999999892e+01
-5.802602893000000250e+01
-5.833969894999999894e+01
-5.820129187999999942e+01
-5.849744050000000328e+01
-5.827198970999999972e+01
-5.796558336999999739e+01
-5.768076151999999723e+01
-5.843424129000000278e+01
-5.744798150999999820e+01
-5.788920111000000190e+01
-5.803913507000000038e+01
-5.836153646999999722e+01
-5.822357935000000140e+01
-5.809950761999999713e+01
-5.852553028999999896e+01
-5.840056452000000320e+01
-5.840209823000000000e+01
-5.851554786999999891e+01
-5.823177934000000278e+01
-5.797843453000000125e+01
-5.838042020999999693e+01
-5.860978080999999662e+01
-5.854088775000000311e+01
-5.833807253999999887e+01
-5.849689977999999968e+01
-5.852144719000000350e+01
-5.839988913999999909e+01
-5.813575294999999699e+01
-5.867985445000000055e+01
-5.816630956000000197e+01
-5.828667710999999940e+01
-5.841636919999999833e+01
-5.786769852999999841e+01
-5.809273014000000046e+01
-5.828687149999999662e+01
-5.798480081999999669e+01
-5.813270035000000036e+01
-5.833578177999999781e+01
-5.821580383999999952e+01
-5.776194688000000355e+01
-5.825256622999999934e+01
-5.846672337999999769e+01
-5.807421446000000032e+01
-5.802319116000000321e+01
-5.824040437000000026e+01
-5.853771601999999774e+01
-5.818839085999999838e+01
-5.846645845999999835e+01
-5.837553323000000205e+01
-5.825316047999999824e+01
-5.807168029000000331e+01
