4.405000000000000061e-03 5.087939999999999685e-01 8.294319999999999471e-01 9.720600000000000074e-02 1.067619999999999958e-01 2.307569999999999899e-01 6.128759999999999764e-01 -9.763039999999999496e-01 -2.808820000000000205e-01 5.475470000000000059e-01 -4.631759999999999766e-01 -3.057750000000000190e-01 -1.358597999999999972e+00 1.150552000000000019e+00 -4.241559999999999775e-01 5.652859999999999552e-01 -4.843890000000000140e-01 9.204989999999999561e-01 -5.292459999999999942e-01 -5.026019999999999932e-01 -4.227650000000000019e-01 -4.501709999999999878e-01 5.203179999999999472e-01 1.762269999999999948e-01 4.696100000000000274e-02 -9.351299999999999890e-02 2.284980000000000067e-01 1.520700000000000107e-01 -6.364140000000000352e-01 -1.264730000000000021e-01 -6.391179999999999639e-01 4.125360000000000138e-01 4.271719999999999962e-01 2.487860000000000071e-01 7.462299999999999489e-02 4.728399999999999825e-01 4.936849999999999850e-01 -1.132099999999999947e-02 1.094269999999999965e-01 6.905670000000000419e-01 3.407859999999999778e-01 -1.113531000000000049e+00 -2.186520000000000130e-01 7.578460000000000196e-01 1.601069999999999993e-01 -2.636040000000000050e-01 -7.044970000000000399e-01 -8.813760000000000483e-01
-5.655520000000000547e-01 2.567940000000000222e-01 8.368999999999999703e-03 1.322200000000000042e-01 -3.805700000000000055e-02 -1.209149999999999947e-01 8.529399999999999482e-02 -2.214689999999999992e-01 4.477099999999999969e-01 -2.971630000000000105e-01 1.185049999999999992e-01 -9.354459999999999997e-01 1.706390000000000129e-01 -2.879959999999999742e-01 -9.614899999999999836e-02 -5.997130000000000516e-01 1.288267999999999969e+00 6.992859999999999632e-01 4.026980000000000004e-01 -1.444771000000000027e+00 2.050160000000000038e-01 1.098599999999999993e-01 -7.708500000000000074e-02 1.746910000000000129e-01 -7.268270000000000008e-01 6.613600000000000034e-02 -1.072135999999999978e+00 -2.866040000000000254e-01 2.660319999999999907e-01 6.150109999999999744e-01 3.543299999999999922e-02 5.893140000000000045e-01 5.064459999999999518e-01 5.519659999999999567e-01 -8.481199999999999850e-02 -8.512530000000000374e-01 -1.763389999999999957e-01 -6.438270000000000381e-01 2.105110000000000037e-01 6.768170000000000019e-01 -4.866710000000000202e-01 -4.332099999999999840e-02 3.179350000000000231e-01 -6.911499999999999588e-02 -4.646020000000000150e-01 1.693369999999999875e-01 7.687530000000000197e-01 7.167810000000000015e-01
2.638889999999999847e-01 -3.676760000000000028e-01 -5.714719999999999800e-01 -7.701810000000000045e-01 -2.334199999999999886e-01 -4.710599999999999787e-01 -5.225269999999999637e-01 -4.579239999999999977e-01 3.980000000000000248e-04 -7.240779999999999994e-01 4.771800000000000347e-02 -1.493379999999999930e+00 -8.391720000000000290e-01 1.137699999999999961e-01 2.529970000000000274e-01 6.048759999999999692e-01 2.265240000000000031e-01 6.277460000000000262e-01 -4.558700000000000252e-02 -2.248169999999999891e-01 2.174500000000000044e-02 -1.573370000000000046e-01 3.009600000000000053e-01 -4.750369999999999870e-01 8.582800000000000151e-02 -4.453340000000000076e-01 9.063470000000000137e-01 1.049787999999999943e+00 -1.936279999999999946e-01 5.733530000000000015e-01 3.112249999999999739e-01 7.280899999999999872e-02 8.610569999999999613e-01 4.373600000000000265e-01 9.623099999999999710e-02 1.389459999999999862e-01 -2.095360000000000000e-01 3.650729999999999809e-01 -4.954540000000000055e-01 3.303969999999999962e-01 3.471839999999999926e-01 1.500130000000000075e-01 1.102550000000000058e-01 -5.800700000000000300e-02 -3.888440000000000230e-01 7.480000000000000537e-02 4.105380000000000140e-01 3.626460000000000239e-01
2.645600000000000174e-01 -4.226249999999999729e-01 1.342299999999999917e-02 -1.195200000000000012e-01 -1.937540000000000096e-01 4.291710000000000247e-01 -1.598430000000000129e-01 2.354120000000000101e-01 1.149199999999999944e-01 -4.541620000000000101e-01 2.905289999999999817e-01 -6.518659999999999455e-01 -6.605469999999999953e-01 -7.999920000000000364e-01 -3.258989999999999942e-01 2.249460000000000071e-01 1.168959999999999999e-01 -2.568440000000000167e-01 -2.637769999999999837e-01 -2.213720000000000132e-01 2.947759999999999825e-01 -1.032078999999999969e+00 1.404571999999999932e+00 9.934589999999999810e-01 3.342800000000000216e-01 2.050000000000000086e-02 7.770399999999999530e-02 -7.163810000000000455e-01 -1.511420999999999903e+00 4.100280000000000036e-01 1.166693999999999898e+00 -1.765408000000000088e+00 1.179930000000000007e-01 9.455860000000000376e-01 6.004899999999999821e-02 -6.765430000000000055e-01 1.408979999999999955e-01 2.124798000000000187e+00 -1.309199999999999947e-02 4.876960000000000184e-01 -1.968540000000000012e-01 -8.319649999999999546e-01 -7.422999999999999911e-03 8.227360000000000229e-01 5.659060000000000201e-01 -1.509270000000000056e-01 3.593299999999999966e-02 -2.611700000000000133e-01
2.969330000000000025e-01 -1.033762000000000070e+00 4.352619999999999822e-01 1.715600000000000111e-02 -4.248699999999999699e-02 -4.302239999999999953e-01 -7.765309999999999713e-01 3.139629999999999921e-01 4.966619999999999924e-01 8.507510000000000350e-01 9.496090000000000364e-01 -7.242239999999999789e-01 7.978389999999999649e-01 7.330520000000000369e-01 2.540910000000000113e-01 7.783639999999999448e-01 1.893739999999999868e-01 1.194148999999999905e+00 -9.959860000000000380e-01 3.389499999999999735e-01 -1.078448000000000073e+00 6.105599999999999916e-01 -9.596599999999999575e-02 -5.343400000000000233e-02 -1.012930000000000108e+00 9.449899999999999967e-02 5.071719999999999562e-01 9.652159999999999629e-01 -3.490000000000000047e-02 1.854669999999999930e-01 3.702590000000000048e-01 -3.702139999999999875e-01 -7.074740000000000473e-01 2.608779999999999988e-01 5.718239999999999990e-01 -5.078949999999999854e-01 -3.795080000000000120e-01 6.594600000000000461e-02 -6.707710000000000061e-01 3.445599999999999774e-01 3.315100000000000269e-01 9.839940000000000353e-01 -1.207262000000000057e+00 -1.181543999999999928e+00 6.000440000000000218e-01 -9.203010000000000357e-01 -8.298529999999999518e-01 -4.843729999999999980e-01
2.459469999999999990e-01 7.623640000000000416e-01 -6.519599999999999840e-01 -5.581549999999999567e-01 -9.845180000000000042e-01 6.390559999999999574e-01 -6.203060000000000240e-01 1.112490000000000007e-01 -8.015400000000000302e-02 -4.872059999999999724e-01 -8.762899999999999856e-02 4.039760000000000018e-01 -2.285560000000000092e-01 -7.578400000000000414e-02 1.039543000000000106e+00 1.835148999999999919e+00 1.223090000000000011e-01 2.998290000000000122e-01 -1.071528000000000036e+00 -3.475460000000000216e-01 3.149230000000000085e-01 1.092219999999999969e+00 2.084880000000000067e-01 -2.445000000000000125e-03 -2.363929999999999920e-01 -3.679149999999999920e-01 1.448939999999999950e-01 2.442769999999999941e-01 4.729599999999999776e-02 -7.590000000000000175e-04 4.410399999999999876e-01 4.385319999999999774e-01 -5.098199999999999954e-02 -6.858959999999999502e-01 -8.878300000000000081e-02 -2.817669999999999897e-01 2.441020000000000134e-01 6.183000000000000128e-03 -5.891589999999999883e-01 6.367699999999999472e-01 2.521959999999999757e-01 2.912830000000000141e-01 -1.660617999999999927e+00 7.854999999999999136e-03 -4.863939999999999930e-01 8.091509999999999536e-01 -4.300000000000000003e-03 -9.898829999999999574e-01
-6.068289999999999518e-01 -2.851060000000000261e-01 4.803049999999999820e-01 5.245610000000000550e-01 4.012339999999999796e-01 1.704720000000000124e-01 -1.608599999999999960e-02 4.446399999999999658e-02 -1.735339999999999938e-01 7.522520000000000318e-01 5.119470000000000409e-01 5.619070000000000453e-01 9.072999999999999954e-01 1.061288000000000009e+00 1.790674000000000099e+00 2.643019999999999814e-01 -4.725309999999999788e-01 1.039910000000000001e-01 -7.604360000000000008e-01 1.349839999999999929e-01 -4.012399999999999856e-01 1.301360000000000017e-01 -2.416389999999999927e-01 -2.588699999999999890e-01 3.801300000000000234e-01 2.549469999999999792e-01 -2.505299999999999749e-01 -5.687360000000000193e-01 3.093830000000000191e-01 -6.101579999999999782e-01 3.644000000000000017e-01 -9.028639999999999999e-01 -9.453190000000000204e-01 -1.525799999999999934e-01 9.166680000000000383e-01 -8.829199999999999549e-02 5.077000000000000263e-02 -1.169272000000000089e+00 -5.731800000000000228e-01 -9.031449999999999756e-01 -1.804949999999999888e-01 -8.348899999999999377e-02 -8.720200000000000173e-02 -9.552319999999999700e-01 2.694559999999999733e-01 -2.788370000000000015e-01 5.722239999999999549e-01 7.805999999999999571e-03
-6.609600000000000197e-02 -1.712841000000000058e+00 2.708400000000000044e-02 6.053180000000000227e-01 7.340199999999999503e-02 -7.601199999999999624e-02 8.738299999999999956e-01 2.141830000000000123e-01 3.991140000000000243e-01 -3.338079999999999936e-01 -6.206439999999999735e-01 -1.782310000000000005e-01 -8.000030000000000197e-01 9.886310000000000375e-01 1.169869000000000048e+00 -1.992240000000000122e-01 -4.448909999999999809e-01 1.498799999999999959e-02 7.168729999999999825e-01 9.489370000000000305e-01 -2.885980000000000212e-01 4.282360000000000055e-01 -9.782760000000000344e-01 -6.080769999999999786e-01 -3.264759999999999884e-01 4.043820000000000192e-01 -2.360500000000000098e-02 -5.691380000000000328e-01 -4.452909999999999924e-01 -2.463019999999999932e-01 -1.218130000000000046e-01 2.389330000000000065e-01 2.319720000000000115e-01 -3.951419999999999932e-01 1.140387000000000040e+00 -2.285979999999999956e-01 -1.777539999999999953e-01 2.971829999999999750e-01 -4.406720000000000081e-01 -5.000679999999999570e-01 3.594300000000000272e-02 3.991029999999999855e-01 5.814279999999999449e-01 -8.884189999999999587e-01 -1.374249999999999916e-01 2.838359999999999772e-01 7.483809999999999629e-01 -1.461100000000000072e-02
7.751959999999999962e-01 8.564699999999999536e-01 7.119250000000000300e-01 2.654119999999999813e-01 2.289770000000000139e-01 -3.097670000000000146e-01 -3.662759999999999905e-01 -2.904809999999999892e-01 -1.762961000000000000e+00 3.577270000000000172e-01 -2.331050000000000066e-01 -3.206919999999999771e-01 1.371680000000000121e-01 -4.421640000000000015e-01 6.986799999999999955e-02 -1.110630999999999924e+00 6.717400000000000038e-01 3.016500000000000084e-02 -2.710029999999999939e-01 -2.341669999999999863e-01 7.953179999999999694e-01 1.445235999999999965e+00 4.418050000000000033e-01 1.041409999999999947e+00 -4.694900000000000184e-01 -8.816629999999999745e-01 -5.860800000000000454e-01 3.460090000000000110e-01 -3.875500000000000056e-01 1.099755999999999956e+00 -2.245560000000000056e-01 7.040269999999999584e-01 -7.680700000000000027e-02 8.848799999999999721e-02 -3.095339999999999758e-01 -4.351399999999999713e-02 -3.319819999999999993e-01 -2.774630000000000152e-01 -3.004709999999999881e-01 3.093540000000000179e-01 7.796239999999999837e-01 1.108350000000000030e-01 -3.978419999999999734e-01 -5.935000000000000275e-01 -3.651650000000000174e-01 -5.528100000000000236e-01 -3.301699999999999774e-02 -9.382100000000000162e-02
-1.621529999999999916e-01 4.408869999999999734e-01 -7.116419999999999968e-01 1.109123000000000081e+00 5.457889999999999686e-01 -2.767149999999999888e-01 -1.035981999999999958e+00 3.950580000000000203e-01 -3.689470000000000249e-01 -5.509490000000000220e-01 -1.844169999999999976e-01 -8.802119999999999944e-01 -6.096399999999999597e-01 -6.239970000000000239e-01 -2.378989999999999994e-01 4.675460000000000171e-01 -1.099419999999999981e-01 -9.505470000000000308e-01 1.082988999999999979e+00 4.534730000000000150e-01 -7.292459999999999498e-01 1.111329999999999929e+00 8.347899999999999765e-02 5.517739999999999867e-01 1.500370000000000037e-01 -4.050449999999999884e-01 -3.252579999999999916e-01 -1.074311000000000016e+00 4.736339999999999995e-01 1.792307000000000095e+00 1.700787999999999967e+00 -8.080699999999999550e-01 1.173519999999999897e+00 -1.517285999999999913e+00 7.776509999999999811e-01 -1.913259999999999961e-01 -3.578689999999999927e-01 7.225999999999999784e-03 1.619985000000000008e+00 8.624199999999999644e-01 2.868390000000000106e-01 -3.022690000000000099e-01 -1.217065999999999981e+00 -3.317419999999999813e-01 -9.334900000000000420e-01 4.102299999999999697e-02 -1.000823000000000018e+00 7.699660000000000393e-01
-3.479999999999999760e-01 -2.941579999999999750e-01 -8.884170000000000122e-01 7.977130000000000054e-01 2.930039999999999867e-01 6.908050000000000024e-01 1.011932000000000054e+00 -6.687800000000000411e-01 1.052964000000000011e+00 2.696879999999999833e-01 2.043270000000000086e-01 1.354519999999999891e-01 -6.936330000000000551e-01 -9.734299999999999897e-02 -6.614090000000000247e-01 1.052130000000000010e-01 -4.287699999999999845e-01 7.999479999999999924e-01 1.731260000000000021e-01 1.204612000000000016e+00 2.121570000000000122e-01 -1.757740000000000136e-01 -1.171740999999999921e+00 -2.601100000000000079e-01 -9.734500000000000375e-01 7.031509999999999705e-01 -1.584130000000000038e+00 -8.393399999999999472e-02 8.426420000000000021e-01 -9.335799999999999654e-01 8.616880000000000095e-01 -1.000140000000000057e-01 8.220039999999999569e-01 -4.830999999999999878e-02 3.893829999999999791e-01 -2.602729999999999766e-01 -1.353731999999999935e+00 -1.929839999999999889e-01 6.862519999999999731e-01 2.623440000000000216e-01 -1.932180000000000009e-01 1.469600000000000073e-01 -2.909649999999999737e-01 -1.024267999999999956e+00 3.986160000000000259e-01 4.860929999999999973e-01 5.341569999999999929e-01 -3.572400000000000020e-01
-3.144640000000000213e-01 1.532969999999999888e-01 -2.203099999999999850e-02 -6.999170000000000114e-01 8.849860000000000504e-01 -3.473220000000000196e-01 5.024840000000000417e-01 -1.351895999999999987e+00 6.525400000000000089e-01 -7.447589999999999488e-01 7.081530000000000324e-01 4.036620000000000208e-01 -6.913500000000000201e-02 9.817700000000000038e-02 -3.236829999999999985e-01 5.246060000000000167e-01 4.030630000000000046e-01 3.226600000000000301e-02 -6.574099999999999389e-02 -4.914240000000000275e-01 2.255379000000000023e+00 -5.532160000000000410e-01 -3.386540000000000106e-01 -2.938700000000000201e-01 -5.437290000000000179e-01 -1.051725000000000021e+00 -4.783029999999999782e-01 -2.470779999999999921e-01 1.049234000000000000e+00 4.360069999999999779e-01 1.159280000000000033e-01 4.629900000000000126e-01 2.599190000000000111e-01 3.655619999999999981e-01 5.338899999999999896e-02 -1.947069999999999912e-01 7.107949999999999546e-01 4.538920000000000177e-01 -9.916779999999999484e-01 6.924879999999999924e-01 -1.216269000000000045e+00 7.947290000000000187e-01 -2.079979999999999885e-01 -4.120119999999999894e-01 -1.276715999999999962e+00 5.341740000000000377e-01 5.947980000000000489e-01 -9.061919999999999975e-01
4.462209999999999788e-01 1.953729999999999911e-01 -1.172220000000000067e-01 -1.750150000000000039e-01 3.545610000000000150e-01 -4.571529999999999760e-01 9.693310000000000537e-01 9.820189999999999753e-01 -9.702900000000000413e-02 -1.343949999999999867e-01 4.055199999999999916e-01 3.986999999999999988e-01 -4.361550000000000149e-01 -2.102300000000000002e-01 1.482445000000000013e+00 -1.436422000000000088e+00 -5.082989999999999453e-01 6.332799999999999541e-01 -5.632000000000000201e-02 -8.238499999999999990e-02 1.105431999999999970e+00 -7.686790000000000012e-01 2.462570000000000037e-01 -1.439197999999999977e+00 5.896900000000000058e-02 -5.086439999999999850e-01 1.019029999999999936e-01 5.762869999999999937e-01 -7.108259999999999579e-01 -6.535290000000000266e-01 9.983100000000000307e-02 -1.799792999999999976e+00 -1.766353000000000062e+00 2.012839999999999907e-01 4.138430000000000164e-01 8.370830000000000215e-01 4.761300000000000254e-02 -4.363009999999999944e-01 -1.071376000000000106e+00 -5.139899999999999469e-01 1.195707000000000075e+00 2.971798999999999857e+00 1.457119000000000053e+00 9.420099999999999307e-02 -1.853680000000000050e-01 -3.356790000000000052e-01 3.689979999999999927e-01 -1.743414999999999937e+00
4.611970000000000236e-01 -1.615540000000000032e-01 1.322939999999999949e-01 -7.430699999999999805e-02 1.913065000000000015e+00 6.930129999999999901e-01 -2.080400000000000027e-01 4.692299999999999943e-02 -2.535810000000000008e-01 -3.665340000000000265e-01 -9.957629999999999537e-01 4.037370000000000125e-01 -7.384920000000000373e-01 -3.805890000000000106e-01 3.592799999999999883e-01 2.013699999999999865e-02 5.751859999999999751e-01 -1.349796999999999914e+00 -3.083910000000000262e-01 2.463699999999999918e-02 -1.026730000000000004e-01 3.913719999999999977e-01 1.136650000000000021e-01 -4.964799999999999769e-02 3.560710000000000264e-01 6.654320000000000235e-01 1.021190000000000042e+00 -1.273854999999999960e+00 1.095752000000000059e+00 1.911180000000000101e-01 -6.696750000000000203e-01 2.950530000000000097e-01 7.507800000000000584e-02 7.626939999999999831e-01 -2.457040000000000057e-01 -6.090379999999999683e-01 -4.376470000000000082e-01 -1.484512000000000054e+00 3.448249999999999926e-01 6.061109999999999554e-01 -5.769220000000000459e-01 4.348799999999999888e-02 1.703349999999999864e-01 1.016642000000000046e+00 -3.681139999999999968e-01 1.309023999999999965e+00 -1.901310999999999973e+00 -5.311730000000000063e-01
2.365400000000000141e-02 4.970800000000000218e-02 2.602419999999999733e-01 5.136089999999999822e-01 4.329500000000000015e-01 -6.106700000000000461e-01 5.632329999999999837e-01 -4.720300000000000051e-01 1.336440000000000128e-01 4.486999999999999669e-03 -3.561999999999999889e-02 3.246200000000000196e-01 1.930550000000000044e-01 -1.085763999999999951e+00 6.091569999999999485e-01 3.118699999999999806e-01 1.706267999999999896e+00 -7.996020000000000350e-01 -2.841369999999999729e-01 8.890599999999999892e-02 -1.496979999999999977e-01 1.907349999999999879e-01 5.893799999999999734e-02 2.680799999999999850e-01 -5.571490000000000054e-01 1.111850000000000060e-01 4.757569999999999855e-01 -1.932520000000000071e-01 4.763490000000000224e-01 -8.604600000000000026e-01 4.758400000000000130e-02 8.475620000000000376e-01 -4.317909999999999804e-01 -7.585030000000000383e-01 -3.342820000000000236e-01 -4.573229999999999795e-01 -1.752799999999999844e-02 -1.230968000000000062e+00 1.305573000000000095e+00 -3.454789999999999806e-01 1.711969999999999881e-01 9.585799999999999876e-02 5.272879999999999789e-01 -2.672479999999999856e-01 -3.553529999999999744e-01 -2.194679999999999964e-01 -5.171510000000000273e-01 1.919669999999999987e-01
5.217880000000000296e-01 -1.586492999999999931e+00 -1.188817999999999930e+00 2.332130000000000036e-01 4.639860000000000095e-01 2.144870000000000110e-01 -2.924120000000000053e-01 -4.089659999999999962e-01 -3.192769999999999775e-01 1.240079999999999932e-01 4.570069999999999966e-01 -9.688120000000000065e-01 6.064169999999999838e-01 7.398470000000000324e-01 -3.994789999999999730e-01 -4.228049999999999864e-01 2.883809999999999985e-01 -4.909419999999999895e-01 -2.782760000000000233e-01 -5.942429999999999657e-01 3.050269999999999926e-01 -8.788230000000000208e-01 2.659230000000000205e-01 -2.365250000000000130e-01 2.389120000000000132e-01 5.865100000000000174e-02 -1.018809000000000076e+00 -6.651000000000000245e-01 1.621599999999999986e-01 1.273689999999999989e+00 9.638889999999999958e-01 -1.988880000000000092e-01 2.345150000000000012e-01 -5.068200000000000482e-01 4.188020000000000076e-01 7.170199999999999907e-01 3.016199999999999992e-01 -2.735839999999999939e-01 5.185969999999999747e-01 -1.168155999999999972e+00 5.139620000000000299e-01 5.657529999999999504e-01 2.774750000000000272e-01 -1.538069999999999993e-01 6.076219999999999954e-01 9.450690000000000479e-01 -1.527380000000000126e-01 1.859510000000000052e-01
-8.443599999999999717e-02 -6.555699999999999861e-01 4.162230000000000096e-01 6.375769999999999493e-01 -1.327361999999999931e+00 -9.576200000000000268e-01 -6.714729999999999865e-01 1.242218999999999962e+00 7.992000000000000492e-02 -7.020999999999999464e-02 2.849650000000000238e-01 -4.103089999999999793e-01 1.761099999999999888e-01 9.575400000000000578e-02 1.650600000000000123e-01 -1.909599999999999839e-02 5.817120000000000068e-01 4.485259999999999803e-01 -1.603218999999999950e+00 -6.275570000000000315e-01 -6.905710000000000459e-01 -4.454540000000000166e-01 5.082400000000000112e-02 7.154599999999999849e-02 -4.029619999999999869e-01 -1.166179999999999994e-01 6.187359999999999527e-01 1.445332999999999979e+00 9.797999999999999765e-02 -3.434070000000000178e-01 -2.401959999999999928e-01 4.913879999999999915e-01 -5.968430000000000124e-01 4.807230000000000114e-01 -5.939410000000000522e-01 3.524519999999999875e-01 6.262180000000000524e-01 5.333000000000000240e-02 -1.402299999999999935e-01 6.988189999999999680e-01 3.094839999999999813e-01 4.755299999999999805e-02 -5.167230000000000434e-01 -3.289600000000000163e-02 1.982039999999999913e-01 -1.100899999999999969e-02 1.462910000000000044e-01 7.407599999999999740e-01
-4.031100000000000239e-01 -5.424039999999999973e-01 -8.859999999999999820e-03 4.042319999999999802e-01 -5.581019999999999870e-01 -1.237921999999999967e+00 6.010940000000000172e-01 9.493869999999999809e-01 4.573809999999999820e-01 -4.430800000000000016e-02 -3.463990000000000125e-01 4.929589999999999805e-01 1.235657000000000005e+00 3.899039999999999728e-01 -1.057409999999999961e+00 -1.674776999999999960e+00 -8.324939999999999563e-01 1.905010000000000037e-01 1.174471999999999960e+00 4.268129999999999979e-01 -7.819700000000000539e-01 -6.762249999999999650e-01 2.653849999999999820e-01 1.805100000000000107e-02 4.250920000000000254e-01 2.531979999999999786e-01 4.302969999999999851e-01 -5.050249999999999462e-01 -2.976520000000000277e-01 -7.637279999999999625e-01 -1.202489999999999948e-01 -3.660299999999999665e-02 3.972800000000000220e-01 7.405779999999999585e-01 -1.007389999999999952e-01 -6.715100000000000235e-02 -7.605830000000000091e-01 8.725159999999999583e-01 7.828110000000000346e-01 -1.389264999999999972e+00 -1.257838999999999929e+00 -5.590260000000000229e-01 1.447270000000000056e+00 4.815579999999999861e-01 4.130449999999999955e-01 -4.548530000000000073e-01 3.334719999999999906e-01 1.293743000000000087e+00
5.628199999999999870e-02 7.562259999999999538e-01 3.855120000000000213e-01 -1.118187999999999960e+00 1.125458999999999987e+00 1.948630000000000084e-01 8.504810000000000425e-01 2.318000000000000182e-03 8.059610000000000385e-01 9.750900000000000123e-01 -6.899239999999999817e-01 5.888379999999999725e-01 -4.021700000000000275e-01 -5.561469999999999470e-01 9.027699999999999614e-02 2.793050000000000255e-01 -1.083090000000000025e-01 8.029929999999999568e-01 1.384720000000000117e-01 -5.791840000000000321e-01 -3.004600000000000048e-01 -6.313490000000000490e-01 1.113780000000000048e-01 -1.163810999999999929e+00 -8.393049999999999677e-01 2.894059999999999966e-01 -9.853420000000000512e-01 -7.769700000000000217e-02 4.825999999999999734e-01 -2.510700000000000154e-01 -5.492310000000000247e-01 6.613499999999999934e-02 1.298439999999999872e-01 -1.214910000000000018e-01 1.638650000000000106e-01 -6.848799999999999333e-02 5.065920000000000423e-01 -3.710999999999999854e-01 -1.100411999999999946e+00 9.539790000000000214e-01 -1.091283000000000003e+00 -3.274460000000000148e-01 -2.081490000000000007e-01 3.320000000000000034e-02 1.509292000000000078e+00 1.873789999999999900e-01 3.653620000000000201e-01 -3.105490000000000195e-01
-1.028840000000000032e-01 -4.340209999999999901e-01 2.350849999999999884e-01 -1.315209999999999990e-01 4.679869999999999863e-01 -9.219070000000000320e-01 -8.434500000000000330e-02 -3.674180000000000224e-01 2.366659999999999875e-01 1.274002000000000079e+00 -1.249622000000000011e+00 6.056249999999999689e-01 1.260090000000000099e-01 3.292410000000000059e-01 -3.121050000000000213e-01 -5.584419999999999940e-01 2.370699999999999891e-02 4.606759999999999744e-01 -1.254929999999999934e-01 8.087400000000000144e-02 -1.066402999999999990e+00 -6.708999999999999686e-02 -5.930300000000000155e-02 -5.231230000000000047e-01 -2.458150000000000057e-01 -6.515370000000000328e-01 5.240150000000000086e-01 2.355750000000000066e-01 -6.357420000000000293e-01 -6.678680000000000172e-01 9.901999999999999344e-03 -4.171899999999999914e-02 4.191579999999999750e-01 3.552159999999999762e-01 -1.659490000000000132e-01 -1.830219999999999902e-01 -1.049199999999999910e+00 3.649680000000000146e-01 2.103690000000000004e-01 -8.445390000000000397e-01 1.487538000000000027e+00 1.716401999999999983e+00 -1.606859999999999955e-01 4.855450000000000044e-01 -1.466800000000000048e-01 1.369310999999999945e+00 3.654499999999999971e-01 -5.868879999999999653e-01
-9.404099999999999959e-02 6.347490000000000077e-01 1.260364000000000040e+00 6.416099999999999581e-02 7.262399999999999411e-02 2.882990000000000275e-01 -4.645500000000000324e-02 -9.266259999999999497e-01 1.695160000000000000e-01 4.087000000000000355e-03 -5.229970000000000452e-01 4.227339999999999987e-01 -4.489429999999999810e-01 -1.407016999999999962e+00 3.601550000000000029e-01 8.134559999999999569e-01 6.457140000000000102e-01 -5.020100000000000257e-02 7.564650000000000540e-01 -2.666859999999999786e-01 -5.584609999999999852e-01 -2.233000000000000176e-03 1.906069999999999987e-01 -3.943450000000000011e-01 -1.350757999999999903e+00 4.044299999999999978e-02 -8.798719999999999875e-01 2.965679999999999983e-01 4.839870000000000005e-01 -3.559579999999999966e-01 7.698530000000000095e-01 1.126738000000000017e+00 7.216580000000000217e-01 -7.717400000000000648e-02 4.249620000000000064e-01 -8.293949999999999934e-01 -2.144709999999999950e-01 -3.961680000000000201e-01 9.357480000000000242e-01 -1.400349999999999928e-01 -1.067359999999999975e-01 -7.201750000000000096e-01 -4.399910000000000210e-01 -1.562620000000000120e-01 -3.093040000000000234e-01 1.095089999999999952e-01 1.626680000000000070e-01 -6.076399999999999857e-02
1.126948000000000061e+00 -1.479699999999999939e-02 2.667289999999999939e-01 2.094435999999999964e+00 -2.543960000000000110e-01 -7.738030000000000186e-01 -2.812299999999999869e-02 1.072600999999999916e+00 3.984159999999999924e-01 5.640709999999999891e-01 -9.908730000000000038e-01 1.115437000000000012e+00 2.117000000000000132e-02 7.868700000000000694e-02 4.059479999999999755e-01 -7.481799999999999562e-02 -2.645770000000000066e-01 -7.218740000000000157e-01 -4.089630000000000210e-01 4.752700000000000258e-01 -4.130119999999999902e-01 -3.329039999999999777e-01 -2.749000000000000141e-03 -3.587569999999999926e-01 8.783429999999999849e-01 -9.622429999999999595e-01 -4.315689999999999804e-01 4.892599999999999727e-02 3.076079999999999925e-01 -5.296180000000000332e-01 -4.177239999999999842e-01 -2.883359999999999812e-01 -1.292179999999999995e-01 5.578800000000000425e-01 3.730829999999999980e-01 6.344299999999999939e-02 -2.001342999999999872e+00 -1.118700000000000076e-02 3.031400000000000067e-02 -4.544000000000000296e-03 -8.814809999999999590e-01 3.826910000000000034e-01 -1.597698999999999980e+00 7.003099999999999881e-01 1.733689999999999953e-01 -4.256550000000000056e-01 6.630810000000000315e-01 5.215039999999999676e-01
2.276160000000000128e-01 2.921349999999999780e-01 -8.356740000000000279e-01 -4.886220000000000008e-01 -5.908050000000000246e-01 2.817339999999999844e-01 -3.541300000000000003e-02 1.422660000000000036e-01 -2.112699999999999995e-02 -2.222550000000000081e-01 -1.979999999999999989e-03 -4.973409999999999775e-01 -2.897580000000000156e-01 1.789380000000000137e-01 1.711999999999999980e-02 -4.321479999999999766e-01 2.275000000000000112e-03 -2.284589999999999954e-01 3.126289999999999902e-01 5.910720000000000418e-01 -2.808000000000000079e-02 -1.069409000000000054e+00 8.272799999999999598e-02 1.018002999999999991e+00 2.392450000000000132e-01 -3.573740000000000250e-01 -6.996599999999999486e-01 -3.867909999999999959e-01 -2.063922999999999952e+00 3.003449999999999731e-01 -1.817799999999999971e-01 -3.183900000000000063e-01 -1.443129999999999968e-01 -2.976949999999999874e-01 1.443579999999999863e-01 -1.585999999999999910e-01 1.576376999999999917e+00 1.369680999999999926e+00 7.383440000000000003e-01 -3.832300000000000290e-02 7.216609999999999969e-01 -3.628609999999999891e-01 1.710190000000000043e-01 -1.057400000000000007e-01 -2.224069999999999936e-01 9.153090000000000392e-01 -8.690199999999999314e-02 8.429759999999999476e-01
1.005489999999999995e-01 -5.990000000000000316e-04 -2.974570000000000269e-01 6.108759999999999746e-01 -7.310999999999999791e-03 1.428310000000000135e-01 3.483769999999999922e-01 -1.970099999999999907e-01 2.147529999999999994e-01 -4.720099999999999851e-01 9.085600000000000620e-02 -2.551470000000000127e-01 5.190800000000000275e-02 -2.612229999999999830e-01 -3.479639999999999955e-01 5.930800000000000516e-01 -1.180130000000000068e-01 3.513129999999999864e-01 -3.774299999999999877e-01 1.051801999999999904e+00 1.229830999999999896e+00 -1.030580000000000052e+00 -2.908560000000000034e-01 1.202280000000000015e-01 -5.678140000000000409e-01 -7.361619999999999830e-01 -1.498242000000000074e+00 3.160669999999999868e-01 5.042250000000000343e-01 -1.997470000000000079e-01 -9.406400000000000317e-01 -2.524640000000000217e-01 7.100279999999999925e-01 3.915020000000000167e-01 -6.122099999999999764e-02 3.869270000000000209e-01 6.542510000000000270e-01 8.106999999999999623e-03 2.361389999999999878e-01 4.933699999999999891e-02 2.761219999999999786e-01 3.365650000000000031e-01 -6.947499999999999509e-02 -9.328520000000000145e-01 -4.873999999999999999e-01 3.420019999999999727e-01 9.265989999999999505e-01 -6.426589999999999803e-01