-5.195593329999999810e+01
-5.234620127000000167e+01
-5.078472167999999698e+01
-5.143328534999999846e+01
-5.192061061999999794e+01
-5.116544505000000242e+01
-5.125084111000000320e+01
-5.172626197999999675e+01
-5.236492336999999964e+01
-5.134487696000000057e+01
-5.327364752999999808e+01
-5.166976440999999909e+01
-5.209057513999999856e+01
-5.091590678000000025e+01
-5.184948949000000340e+01
-5.139550128999999856e+01
-5.199309982999999846e+01
-5.159241585000000185e+01
-5.220830357999999904e+01
-5.198257660000000158e+01
-5.207165181999999959e+01
-5.182910852999999918e+01
-5.271992033000000077e+01
-5.183623310000000117e+01
-5.081474693999999914e+01
-5.213851206999999732e+01
-5.209970692000000270e+01
-5.025488519000000309e+01
-5.104861736000000150e+01
-5.253406470000000184e+01
-5.225555520000000342e+01
-5.198990685999999783e+01
-5.247662187000000245e+01
-5.120725806000000091e+01
-5.195353567000000083e+01
-5.334489386999999994e+01
-5.147213809000000140e+01
-4.988556249999999892e+01
-5.175491746000000148e+01
-5.238150780000000140e+01
-5.136007049999999907e+01
-5.143173517000000317e+01
-5.250785639000000060e+01
-5.218531413000000185e+01
-5.222577179000000314e+01
-5.218597189999999841e+01
-5.176102892000000111e+01
-5.281328201000000178e+01
-5.160648030000000119e+01
-5.228211799000000326e+01
-5.167936480000000188e+01
-5.166717169000000354e+01
-4.998611178000000166e+01
-5.242264800000000236e+01
-5.203704748999999907e+01
-5.233062689999999861e+01
-5.322356587000000161e+01
-5.124537320000000307e+01
-5.301811422000000107e+01
-5.215656047000000228e+01
-5.206280686000000202e+01
-5.054362189999999799e+01
-5.240544604000000106e+01
-5.225371977999999729e+01
-5.280779789999999707e+01
-5.152091395000000063e+01
-5.121529877999999769e+01
-5.226881728000000038e+01
-5.231806241000000313e+01
-5.397798216999999710e+01
-5.167295363000000208e+01
-5.287042139999999790e+01
-5.253137678000000221e+01
-5.202906040999999959e+01
-5.256422716000000150e+01
-5.258091473000000349e+01
-5.429135806000000031e+01
-5.227257054999999752e+01
-5.211792729999999807e+01
-5.224944948000000267e+01
-5.175853580999999792e+01
-5.185652005000000031e+01
-5.247690345000000178e+01
-5.142380490000000037e+01
-5.261733739999999671e+01
-5.307215825000000109e+01
-5.140050504999999958e+01
-5.269484766000000064e+01
-5.076674546999999649e+01
-5.190667787999999661e+01
-5.292907857000000149e+01
-5.136137294000000253e+01
-5.182321203000000054e+01
-5.229732527000000175e+01
-5.092508146000000124e+01
-5.140262725000000188e+01
-5.282215970000000027e+01
-5.217323136000000261e+01
-5.186297165999999947e+01
-5.091570701999999926e+01
