-7.005743680192149547e+00 -2.019369608008298567e+00 -7.175517119094902974e-01 -2.019369608008298567e+00 -2.882577349992174298e+00 -1.550371561925045105e+00 -7.175517119094902974e-01 -1.550371561925045105e+00 -6.046484910509782873e-01
-1.113154361157264383e+01 -2.220609242715659626e+00 1.183501202332883778e-01 -2.220609242715659626e+00 -5.016390465836201074e+00 -2.042979625022314227e+00 1.183501202332883778e-01 -2.042979625022314227e+00 -5.610781070776337032e+00
-6.808887349098893260e+00 -1.494900349142202156e+00 -1.121620810126169099e+00 -1.494900349142202156e+00 -7.501756302793022080e+00 3.719780573576224603e-01 -1.121620810126169099e+00 3.719780573576224603e-01 -8.558124988732117799e+00
-8.224625482014569222e-01 -3.224972485796560484e+00 1.133261440159210487e+00 -3.224972485796560484e+00 1.181356002687216300e+00 1.494541389604634896e+00 1.133261440159210487e+00 1.494541389604634896e+00 -7.936282515052505218e-03
-6.708700569929620272e+00 1.964709883993146722e+00 -2.801394439281972293e+00 1.964709883993146722e+00 -5.234819067549168814e+00 -1.065340714492585938e+00 -2.801394439281972293e+00 -1.065340714492585938e+00 -9.744794506357438379e+00
2.621026197639301003e+00 5.225361724649251194e-01 -4.830454348162411260e-01 5.225361724649251194e-01 -4.501661156789285911e+00 3.018349790321358306e+00 -4.830454348162411260e-01 3.018349790321358306e+00 8.559341961744499017e+00
-6.646837179073104451e+00 1.646484180973318834e+00 -1.622364522380563390e+00 1.646484180973318834e+00 -4.953740355563553521e+00 4.024460392991040525e-01 -1.622364522380563390e+00 4.024460392991040525e-01 -1.191324908280893879e+00
-3.853155254239390981e-01 1.600441007705622365e+00 -6.155980196309872587e-01 1.600441007705622365e+00 -3.705526946834181712e-01 -3.143921091616673547e+00 -6.155980196309872587e-01 -3.143921091616673547e+00 -4.627557365557301239e+00
2.813691674350628613e+00 6.112415099021957232e-01 2.323315456423609149e+00 6.112415099021957232e-01 -5.401852200568550977e+00 -1.422743496799404594e+00 2.323315456423609149e+00 -1.422743496799404594e+00 4.868468948603769664e-01
7.275738256157922912e+00 -4.326438385186138769e-01 9.328116077853573218e-01 -4.326438385186138769e-01 -2.877800278741806217e+00 -1.309447224675677646e+00 9.328116077853573218e-01 -1.309447224675677646e+00 -4.674868704631122363e+00
1.170807674159011924e+01 -8.212820840369593478e-01 -7.375758064659410085e-02 -8.212820840369593478e-01 5.049709799166087976e+00 -3.223959144050595693e+00 -7.375758064659410085e-02 -3.223959144050595693e+00 1.119187676361269368e+01
-6.095672542044688891e-01 3.242997461865868569e+00 -2.858590329444793632e+00 3.242997461865868569e+00 6.246134251561725748e-01 -6.628885674654109161e-01 -2.858590329444793632e+00 -6.628885674654109161e-01 -4.020973006956896967e+00
9.676605460449643203e-01 -5.689216248238125884e-01 8.119306720467682759e-01 -5.689216248238125884e-01 2.556404985588133005e+00 1.796367337938414854e+00 8.119306720467682759e-01 1.796367337938414854e+00 9.936568430343941216e+00
-6.750783581763418972e+00 -1.807629833820495246e+00 -2.183074354637660086e+00 -1.807629833820495246e+00 -9.070522412597524564e+00 -2.138186590517482666e-01 -2.183074354637660086e+00 -2.138186590517482666e-01 -9.798330184437551438e+00
1.906455558665574035e+00 -6.476566129281438045e+00 3.160342931271285849e+00 -6.476566129281438045e+00 -1.102846687216300525e+00 -3.443540303779569101e+00 3.160342931271285849e+00 -3.443540303779569101e+00 -4.845263643975624035e+00
-4.963937922847653006e+00 7.473952998914219492e-01 -9.117118763603008214e-01 7.473952998914219492e-01 -5.115701058402442492e+00 1.112973038725767028e+00 -9.117118763603008214e-01 1.112973038725767028e+00 -4.380879392627653246e+00
3.248781561491271841e+00 -4.827633124123056896e-01 -3.226930281011832213e-01 -4.827633124123056896e-01 3.850662643323557788e+00 -7.553340116603618482e-01 -3.226930281011832213e-01 -7.553340116603618482e-01 -7.387137463072866339e+00
4.917377284135900917e-01 3.003955454883028287e-01 -1.555274211534189099e+00 3.003955454883028287e-01 -6.346843157528915036e+00 -1.854000203694790017e+00 -1.555274211534189099e+00 -1.854000203694790017e+00 -5.374902091570981089e-01
-1.049588836301451522e+01 -8.302523706889505251e-01 -2.444937973928027919e+00 -8.302523706889505251e-01 -1.101082476704563895e+01 5.947318138160950340e+00 -2.444937973928027919e+00 5.947318138160950340e+00 -1.027097227256257739e+01
-7.155703125794497410e+00 2.535244886823946775e+00 1.325712951121422511e+00 2.535244886823946775e+00 -3.782176394724949375e+00 2.666919427238064522e+00 1.325712951121422511e+00 2.666919427238064522e+00 -5.871735104277212791e+00
-2.337169317125460388e+00 -1.638298823614918742e+00 8.199860621784944570e-01 -1.638298823614918742e+00 -4.269034280167678830e+00 -1.134654928413043745e-01 8.199860621784944570e-01 -1.134654928413043745e-01 -6.250867634577929266e+00
-5.980446439412419046e-01 -9.507829480381415621e+00 9.842528666354805056e-01 -9.507829480381415621e+00 3.376366433098738629e+00 -2.623801902250690876e+00 9.842528666354805056e-01 -2.623801902250690876e+00 -4.392965038962373114e+00
-8.991858198760963816e+00 -1.198089653565285184e+00 5.373324918544108986e-01 -1.198089653565285184e+00 -7.986846375605914261e+00 9.566386929767149994e-01 5.373324918544108986e-01 9.566386929767149994e-01 8.515961581632714925e-03
-8.638868982164102928e-01 3.101293632536433087e+00 -2.689534066939428758e+00 3.101293632536433087e+00 1.670062095472452990e+00 -2.437375987077987194e+00 -2.689534066939428758e+00 -2.437375987077987194e+00 -2.475726960537365962e+00
8.200425415048259836e+00 1.104082888069934043e+00 -2.983839169119295587e-01 1.104082888069934043e+00 1.167749015839505766e+01 -3.489161534843609136e+00 -2.983839169119295587e-01 -3.489161534843609136e+00 2.580156541371013912e+00
-7.636926748413956467e+00 -1.630256190873185407e+00 7.682878383429515845e-02 -1.630256190873185407e+00 -4.749201202002223177e+00 1.877263507844438295e-01 7.682878383429515845e-02 1.877263507844438295e-01 2.913732552563641498e+00
5.275494357501740339e+00 -2.470974884483872758e-01 1.859145528018765647e+00 -2.470974884483872758e-01 -3.780560161611925984e+00 -1.044168066595028588e+00 1.859145528018765647e+00 -1.044168066595028588e+00 1.119190301419769495e+00
-3.760988142331561868e+00 2.703510163328225246e+00 3.255513311373206542e-01 2.703510163328225246e+00 -1.722985007984743300e+00 1.687603480417551483e+00 3.255513311373206542e-01 1.687603480417551483e+00 1.075013487253175581e+00
5.860601517030032070e+00 2.261414039553492294e+00 -2.848501945382810430e+00 2.261414039553492294e+00 5.336815885915571656e+00 -1.195744403139302081e+00 -2.848501945382810430e+00 -1.195744403139302081e+00 4.183094739997425648e+00
3.312753865952368648e-01 1.304854396562221963e-01 -3.482451024672419404e-01 1.304854396562221963e-01 -9.192230494429995957e+00 -5.591439382785170498e-01 -3.482451024672419404e-01 -5.591439382785170498e-01 1.157641071111616782e+01
-1.190455676328616264e+01 -1.568810743914300865e+00 -2.470678230949931553e+00 -1.568810743914300865e+00 -4.365752713759803783e+00 1.193829251745108122e+00 -2.470678230949931553e+00 1.193829251745108122e+00 -9.572189188234753843e+00
-8.701511243624359793e+00 7.498678453583257353e-01 -2.792203863155947818e+00 7.498678453583257353e-01 -6.351459987034120402e+00 -5.582657648758189151e-01 -2.792203863155947818e+00 -5.582657648758189151e-01 -3.184284058483095592e+00
-8.856034779778408250e+00 -1.957784592964858517e+00 -2.293056458834885070e-01 -1.957784592964858517e+00 -5.888788972246810971e+00 -1.938337713617196867e+00 -2.293056458834885070e-01 -1.938337713617196867e+00 -4.854870039195879450e+00
-5.737556075119738530e+00 -1.324851355056757107e+00 -9.025552749494738514e-01 -1.324851355056757107e+00 -2.533529003283208070e+00 -5.171737369228870840e+00 -9.025552749494738514e-01 -5.171737369228870840e+00 -7.923176419868926956e+00
-7.391315925058045799e+00 3.286803674322161806e-01 -1.622740197254181282e+00 3.286803674322161806e-01 -5.739514939023186990e+00 -7.063346306054110180e+00 -1.622740197254181282e+00 -7.063346306054110180e+00 -1.020922537866212210e+01
-3.887013314490491478e+00 -4.865020010934417272e+00 2.443295343561407762e+00 -4.865020010934417272e+00 3.405950929650015002e+00 -1.436361656751311111e+00 2.443295343561407762e+00 -1.436361656751311111e+00 6.723813877990218124e+00
-7.720454118530841292e+00 -1.907850034912903281e+00 2.098594317860154934e+00 -1.907850034912903281e+00 -1.006620733123648925e+01 5.961024913838225414e-01 2.098594317860154934e+00 5.961024913838225414e-01 -9.626793791446665693e+00
-5.189345839162359475e+00 -1.129476423397883567e+00 -7.780192840950364008e-01 -1.129476423397883567e+00 1.122426525790318097e+00 9.618270652977530810e-01 -7.780192840950364008e-01 9.618270652977530810e-01 -1.032354693621198827e+01
7.647159418393177921e-01 1.261674721855943648e+00 -1.294172816284721250e+00 1.261674721855943648e+00 -9.289742318040188351e+00 -1.064597557818929729e+00 -1.294172816284721250e+00 -1.064597557818929729e+00 9.363368391886460529e+00
1.040375130324099828e+01 2.935768316097151498e+00 -7.933612635125831813e-01 2.935768316097151498e+00 1.063122384175919244e+01 3.857771222568225244e+00 -7.933612635125831813e-01 3.857771222568225244e+00 3.361623203000671189e+00
-8.690811059416652995e+00 -1.587702670807239202e-01 2.693923917742603313e-01 -1.587702670807239202e-01 -1.234626081176099355e+01 1.294218983366792308e+00 2.693923917742603313e-01 1.294218983366792308e+00 -1.029875822701106358e+01
4.155775148731129853e+00 -9.232650350734584732e-01 -2.392589756277125612e-01 -9.232650350734584732e-01 -2.159879138432770684e+00 -6.181592774284275227e-02 -2.392589756277125612e-01 -6.181592774284275227e-02 -2.317262276816528299e+00
-6.925374961361970172e+00 1.317513055675711975e+00 6.934658593683280525e-01 1.317513055675711975e+00 -6.644286519301556559e+00 7.665278729494140464e-01 6.934658593683280525e-01 7.665278729494140464e-01 -2.027944191551449560e+00
-1.958921890741184502e+00 3.215352017378522387e+00 1.947401643557368889e+00 3.215352017378522387e+00 1.594800637093386264e+00 -2.087079149196868766e+00 1.947401643557368889e+00 -2.087079149196868766e+00 6.444868633193818752e+00
3.746303515342698898e+00 -4.846660289857576132e-01 -2.286319265676079945e-02 -4.846660289857576132e-01 -6.243787587386888660e+00 -6.231689615374595981e-01 -2.286319265676079945e-02 -6.231689615374595981e-01 1.129654867715268241e+00
-7.931329036508005359e+00 -5.677453516250645649e-01 -1.417688465096197170e+00 -5.677453516250645649e-01 -7.048011046612014496e+00 8.427992071493342063e-01 -1.417688465096197170e+00 8.427992071493342063e-01 -9.137679931169893521e+00
6.986904172028414628e+00 -1.045788010176792904e+00 4.902617897792769242e-01 -1.045788010176792904e+00 -3.809463365518147349e+00 1.544174198445778523e-01 4.902617897792769242e-01 1.544174198445778523e-01 3.354582310282978153e+00
8.770675312825174430e+00 1.756184898629080671e+00 2.028935384239988426e+00 1.756184898629080671e+00 6.492242295721784906e+00 3.339595624226834758e+00 2.028935384239988426e+00 3.339595624226834758e+00 6.350380973011149344e+00
2.384352586586871769e+00 -2.225248166357836510e+00 4.551927506048903393e-01 -2.225248166357836510e+00 2.887606684760569919e+00 -1.248440054085349527e+00 4.551927506048903393e-01 -1.248440054085349527e+00 1.549502213822172614e+01
-2.673674957977343336e+00 -2.488377172902181689e-01 1.895446635485080966e+00 -2.488377172902181689e-01 9.844465674627372875e-02 1.081146901240548797e+00 1.895446635485080966e+00 1.081146901240548797e+00 -1.609939322387963223e+00
-6.552909202681005851e+00 1.898457767781026817e+00 -2.182195182857976867e+00 1.898457767781026817e+00 -6.856639602370165676e+00 2.551469073422917844e-01 -2.182195182857976867e+00 2.551469073422917844e-01 -1.065489055717784872e+01
1.339929829086239144e+00 2.414445325559582134e+00 -5.568843861938617135e-01 2.414445325559582134e+00 4.171478046111905869e+00 6.128043002534057093e-01 -5.568843861938617135e-01 6.128043002534057093e-01 -1.665741164386138395e+00
-5.544441091609002115e+00 -1.407330994406444206e-02 -4.725790993945772622e-01 -1.407330994406444206e-02 -2.124022429470639739e-01 2.038282383772070938e-01 -4.725790993945772622e-01 2.038282383772070938e-01 -1.187053235720109079e+01
-1.114554339118994619e+01 -2.068420002518673417e+00 -1.436797002606116314e+00 -2.068420002518673417e+00 -5.560387915776989765e+00 9.146964801767160091e-02 -1.436797002606116314e+00 9.146964801767160091e-02 -7.816270125064676222e+00
1.018399296461279802e+00 1.073912653940531703e+00 2.011667030513494048e+00 1.073912653940531703e+00 -5.268179930802914690e+00 3.586021092004031408e-01 2.011667030513494048e+00 3.586021092004031408e-01 3.501092969487474615e+00
-4.791770503648926649e+00 2.294014698377539130e+00 5.831202005754227535e+00 2.294014698377539130e+00 -9.710015706844478345e+00 -2.951534985726643967e+00 5.831202005754227535e+00 -2.951534985726643967e+00 -4.101021914316236305e+00
-2.913683717061799072e+00 -1.633257604439136701e+00 5.879767755101248383e-01 -1.633257604439136701e+00 -2.596318552624000020e+00 9.547979500663378305e-01 5.879767755101248383e-01 9.547979500663378305e-01 7.721966276586839761e+00
1.537843186967267739e+00 -8.035987588912300694e+00 2.567669981852748418e+00 -8.035987588912300694e+00 4.845123994364545439e+00 -4.224015494828059936e+00 2.567669981852748418e+00 -4.224015494828059936e+00 -4.714910363041200370e+00
-1.026009533385505712e+01 3.579107855007780614e+00 2.418782168876141281e-01 3.579107855007780614e+00 -1.216152437138119602e+01 8.225327527240414716e-01 2.418782168876141281e-01 8.225327527240414716e-01 -7.623631772605440560e+00
-1.727816580801713853e+00 -1.949009525069886894e+00 2.972125688374826158e+00 -1.949009525069886894e+00 -2.592418078578108354e+00 -1.663834100584660192e+00 2.972125688374826158e+00 -1.663834100584660192e+00 1.322747297174485759e+01
-6.067173620883443697e+00 -1.754220523796181652e+00 -4.788417983490692587e-01 -1.754220523796181652e+00 -4.101931703709862376e+00 -1.831114858681013535e+00 -4.788417983490692587e-01 -1.831114858681013535e+00 -6.110441249211837622e-01
-3.273474867083496331e+00 -4.324512277466037169e+00 1.601590577166970508e+00 -4.324512277466037169e+00 1.624445689836746309e+00 -2.076466392029724661e-01 1.601590577166970508e+00 -2.076466392029724661e-01 -5.548805769486323314e+00
2.180022165444833959e+00 2.079768268449502105e-02 -2.205216359761283940e+00 2.079768268449502105e-02 1.963199547602257622e-01 3.160751271639634652e+00 -2.205216359761283940e+00 3.160751271639634652e+00 8.122115109166479385e+00
5.264055364567011175e+00 -8.082456742610115430e-02 -3.383596665406416459e-01 -8.082456742610115430e-02 4.218735276991710137e+00 3.774519128227014075e+00 -3.383596665406416459e-01 3.774519128227014075e+00 1.000468599731625652e+01
-4.478679691792208928e+00 -1.862507493406256653e+00 -1.977611172224654768e-01 -1.862507493406256653e+00 -4.758117240040103724e+00 2.459107753869302027e+00 -1.977611172224654768e-01 2.459107753869302027e+00 -4.072355693706269264e+00
4.437083490915908257e+00 -3.807648964132924974e+00 3.221178298835570275e-01 -3.807648964132924974e+00 -3.449708102244297692e+00 2.291423175552679548e-01 3.221178298835570275e-01 2.291423175552679548e-01 8.273696362391797621e+00
1.782986437058455609e+00 2.599220777540104166e+00 -3.631981731500250277e+00 2.599220777540104166e+00 4.340952262552495000e+00 -1.323107916647755289e+00 -3.631981731500250277e+00 -1.323107916647755289e+00 1.803392062043088107e+00
-5.543196112830848676e+00 -5.914512858935678796e-01 -3.353084727739032989e-01 -5.914512858935678796e-01 -4.409079777174886416e+00 -1.980868475880032120e+00 -3.353084727739032989e-01 -1.980868475880032120e+00 -1.897813871025718191e+00
-9.355892165225432322e-01 -6.970379401280912823e-01 1.082602462101437846e+00 -6.970379401280912823e-01 -4.774830824723764522e+00 1.935740588952671315e+00 1.082602462101437846e+00 1.935740588952671315e+00 2.653306041310075969e+00
3.777166077813475020e+00 -7.260328453156803530e-01 -7.137723016816699406e-01 -7.260328453156803530e-01 8.050472425888108852e-01 -1.763905744577637602e+00 -7.137723016816699406e-01 -1.763905744577637602e+00 1.104690237385776008e+01
-1.810398521859166054e+00 -2.249582028924878685e+00 -3.622537393174577680e+00 -2.249582028924878685e+00 1.421099454496023151e-01 1.112522108600222825e+00 -3.622537393174577680e+00 1.112522108600222825e+00 -7.980790784847466846e+00
-7.377844592780788524e+00 -3.215558933969211441e-01 1.392485719658584697e+00 -3.215558933969211441e-01 -3.483360455678338852e+00 2.098532405177113258e+00 1.392485719658584697e+00 2.098532405177113258e+00 -5.819565997889413644e+00
-6.826035862632705786e+00 -1.439630427820226100e+00 -2.584707823132352811e-01 -1.439630427820226100e+00 -4.260933548725954978e+00 -1.246900461000765681e+00 -2.584707823132352811e-01 -1.246900461000765681e+00 -1.724199452933776522e+00
-3.107359637890076409e-01 1.252318712095871867e+00 -3.671293965277155208e-02 1.252318712095871867e+00 4.271782715334280667e+00 2.286424571588550059e+00 -3.671293965277155208e-02 2.286424571588550059e+00 -2.012151578364171467e+00
-8.499747494884497101e+00 -1.702015487965941931e+00 -2.562461310448487684e+00 -1.702015487965941931e+00 -7.980703660414255829e+00 1.897366773053890121e+00 -2.562461310448487684e+00 1.897366773053890121e+00 -7.713112315074124758e+00
-3.163732224479026467e+00 -2.228740720225469429e-01 1.948061095589577185e+00 -2.228740720225469429e-01 -5.410939663635926600e+00 -4.491512485270367172e+00 1.948061095589577185e+00 -4.491512485270367172e+00 1.656886163019664071e+00
-4.695239072061849761e+00 3.154258247287084482e-01 -1.157730957406369221e+00 3.154258247287084482e-01 -3.528027030235138195e+00 -3.714367957161546219e-01 -1.157730957406369221e+00 -3.714367957161546219e-01 1.452606664815285553e+00
-7.778385895986543730e+00 3.393370285780514806e-01 -1.018684613581924525e+00 3.393370285780514806e-01 -5.107923323371275970e+00 2.076762615250035804e+00 -1.018684613581924525e+00 2.076762615250035804e+00 -8.098734005547971293e+00
-4.470469554976069126e+00 1.620986003868445824e+00 5.719675843073009247e+00 1.620986003868445824e+00 -9.602193301496663835e+00 -2.596527691972515761e+00 5.719675843073009247e+00 -2.596527691972515761e+00 -1.718041672781943863e+00
1.963937046750505733e+00 -5.595562382698489046e-01 1.940648772897983099e+00 -5.595562382698489046e-01 4.323733435434420791e+00 -9.768950386474125613e-01 1.940648772897983099e+00 -9.768950386474125613e-01 -7.369721103391102979e+00
-3.357078015179075781e-01 -1.167453585773735592e+00 1.012366577113551935e+00 -1.167453585773735592e+00 -2.689281354364013055e+00 -2.382964270718915589e+00 1.012366577113551935e+00 -2.382964270718915589e+00 -6.175046501392900566e+00
-1.533065654876556216e+00 -3.923651317363787250e+00 -3.003737178659924734e+00 -3.923651317363787250e+00 -8.267013193229978407e-01 1.514018496938760450e+00 -3.003737178659924734e+00 1.514018496938760450e+00 -6.564354574407279763e+00
-5.029256117282797645e-01 7.898962217226840332e-01 9.929666379376794055e-03 7.898962217226840332e-01 2.317908483080425963e+00 3.198702000781494803e+00 9.929666379376794055e-03 3.198702000781494803e+00 -3.599981645741269887e+00
6.902042684776842130e+00 2.015738534903310342e+00 -1.581520006176192039e+00 2.015738534903310342e+00 2.119142136264553056e+00 -1.595174353771195985e+00 -1.581520006176192039e+00 -1.595174353771195985e+00 4.486500555387491040e+00
-8.769624820558147960e+00 1.183603044185236319e+00 7.164235806646814808e-01 1.183603044185236319e+00 -4.693169441004948261e+00 2.219634995351422280e+00 7.164235806646814808e-01 2.219634995351422280e+00 -5.992011958371024072e+00
-3.449981527754787614e+00 -3.645750859864534399e-01 4.303800130745275787e+00 -3.645750859864534399e-01 -8.233849441019211568e+00 -6.046037195480641335e-01 4.303800130745275787e+00 -6.046037195480641335e-01 3.971665041190041823e+00
7.022615439757836420e+00 -1.388170811640728974e+00 3.846055734196940912e-01 -1.388170811640728974e+00 1.033674551728045010e+01 4.788707975721631094e-01 3.846055734196940912e-01 4.788707975721631094e-01 -2.989689518513820587e+00
3.868120159840601424e+00 -1.730939739816454326e+00 -2.224814574714649051e+00 -1.730939739816454326e+00 6.769905738783752902e+00 -4.453654605365592545e+00 -2.224814574714649051e+00 -4.453654605365592545e+00 2.451256466382507160e+00
-3.748682012373734551e+00 -4.095874945016261814e-01 -3.229389050255216720e+00 -4.095874945016261814e-01 -2.605446992489555580e+00 -2.744554194862936392e+00 -3.229389050255216720e+00 -2.744554194862936392e+00 -7.457559338787022263e+00
5.500193096951850436e+00 -1.278967894694867491e+00 -4.588568724469235249e-01 -1.278967894694867491e+00 -5.341452088073948445e+00 3.576552723700642811e-01 -4.588568724469235249e-01 3.576552723700642811e-01 4.020935557302741437e+00
-6.096072789043996742e+00 9.124059425120240041e-01 1.670500049543095722e+00 9.124059425120240041e-01 -7.354912401231952224e-01 -1.859261107608916053e+00 1.670500049543095722e+00 -1.859261107608916053e+00 4.220709018533677970e+00
-8.460396378930576944e+00 -2.418580054785377520e+00 2.248205298526669615e+00 -2.418580054785377520e+00 -8.825250602585192894e+00 5.856835849113271042e-01 2.248205298526669615e+00 5.856835849113271042e-01 -1.059753454265736039e+01
-3.929368705734744172e+00 2.126690467955594244e-01 -1.560706720968909611e+00 2.126690467955594244e-01 -5.687824455912799948e+00 -3.088180026704199221e+00 -1.560706720968909611e+00 -3.088180026704199221e+00 -6.181040488511289510e+00
-1.826607523152484480e-01 1.071459515958892883e+00 1.819162186503066714e+00 1.071459515958892883e+00 2.480893022783570157e+00 6.308330316572063889e-02 1.819162186503066714e+00 6.308330316572063889e-02 3.733399107368309822e-02
-3.129127015248344357e+00 -1.695882595112073732e+00 -1.260542984309232839e+00 -1.695882595112073732e+00 -1.052909709165816166e+00 5.068358791166753363e+00 -1.260542984309232839e+00 5.068358791166753363e+00 -6.640671568019606674e+00
2.358876959026497744e+00 -5.859834922726700590e+00 4.345151901431282049e+00 -5.859834922726700590e+00 2.393955496678349615e+00 -4.613726996558845883e+00 4.345151901431282049e+00 -4.613726996558845883e+00 -4.630078039814644164e+00
-8.731659780719496666e+00 -3.494753161529158825e-01 5.019554595680456588e-01 -3.494753161529158825e-01 -8.348481003860605654e+00 6.304354016909392566e-01 5.019554595680456588e-01 6.304354016909392566e-01 -1.809994816533524009e+00
-7.615296264725821551e+00 1.893421485651277436e+00 9.324136872909392915e-02 1.893421485651277436e+00 -4.644686851691735008e+00 1.984564643898674152e+00 9.324136872909392915e-02 1.984564643898674152e+00 -5.436509020982719598e+00
-2.402296318245187745e+00 -2.360789431225190693e+00 2.201789743980309133e+00 -2.360789431225190693e+00 -9.314019433448651464e-01 3.305260994796720642e+00 2.201789743980309133e+00 3.305260994796720642e+00 -2.180460175556901525e+00
-5.027059255625439427e+00 -1.609169014420525734e+00 -3.225493507343311972e+00 -1.609169014420525734e+00 -8.185593223035555255e+00 -9.342590832823309821e-01 -3.225493507343311972e+00 -9.342590832823309821e-01 -1.018207854992616213e+01
