5.453730226000000236e+00 0.000000000000000000e+00 0.000000000000000000e+00 -7.524659399999999998e-02 3.785460388000000176e+00 0.000000000000000000e+00 -2.940753429999999891e-01 -4.706265539999999747e-01 1.936510299600000096e+01
5.022635902000000208e+00 0.000000000000000000e+00 0.000000000000000000e+00 -8.458247800000000260e-02 3.592197683000000197e+00 0.000000000000000000e+00 3.892712400000000045e-02 3.008902170000000154e-01 1.890105715300000000e+01
5.228673427000000373e+00 0.000000000000000000e+00 0.000000000000000000e+00 6.944157800000000380e-02 3.854260972000000063e+00 0.000000000000000000e+00 2.044698550000000059e-01 -3.312307879999999982e-01 1.319664546599999966e+01
5.001949605000000076e+00 0.000000000000000000e+00 0.000000000000000000e+00 1.811255499999999893e-02 3.667952280000000176e+00 0.000000000000000000e+00 -3.119481020000000049e-01 -1.798712099999999828e-02 1.559244167800000014e+01
5.022635902000000208e+00 0.000000000000000000e+00 0.000000000000000000e+00 -8.458247800000000260e-02 3.592197683000000197e+00 0.000000000000000000e+00 3.892712400000000045e-02 3.008902170000000154e-01 1.890105715300000000e+01
5.453730226000000236e+00 0.000000000000000000e+00 0.000000000000000000e+00 -7.524659399999999998e-02 3.785460388000000176e+00 0.000000000000000000e+00 -2.940753429999999891e-01 -4.706265539999999747e-01 1.936510299600000096e+01
5.518771225000000058e+00 0.000000000000000000e+00 0.000000000000000000e+00 5.359456800000000215e-02 3.984714592000000000e+00 0.000000000000000000e+00 1.976390899999999964e-02 -2.619511999999999882e-02 1.406694318999999993e+01
5.303269936999999601e+00 0.000000000000000000e+00 0.000000000000000000e+00 2.146788000000000168e-02 3.778986501999999970e+00 0.000000000000000000e+00 -1.115492579999999984e-01 2.777425929999999821e-01 1.375900199300000004e+01
5.146332648999999648e+00 0.000000000000000000e+00 0.000000000000000000e+00 8.818029400000000628e-02 3.551242640999999978e+00 0.000000000000000000e+00 3.341440809999999817e-01 2.500515850000000206e-01 1.325341128300000015e+01
5.326066634000000022e+00 0.000000000000000000e+00 0.000000000000000000e+00 8.717242899999999572e-02 3.984901950999999887e+00 0.000000000000000000e+00 -3.572275610000000268e-01 1.285997620000000063e-01 1.271976260699999983e+01
5.506513147999999802e+00 0.000000000000000000e+00 0.000000000000000000e+00 -2.359592699999999918e-02 3.949013034000000033e+00 0.000000000000000000e+00 3.434105999999999964e-02 4.079308280000000231e-01 1.972672376599999922e+01
5.303269936999999601e+00 0.000000000000000000e+00 0.000000000000000000e+00 2.146788000000000168e-02 3.778986501999999970e+00 0.000000000000000000e+00 -1.115492579999999984e-01 2.777425929999999821e-01 1.375900199300000004e+01
5.217672406000000151e+00 0.000000000000000000e+00 0.000000000000000000e+00 -3.522737499999999827e-02 3.652673575000000117e+00 0.000000000000000000e+00 -4.721037290000000275e-01 3.263127100000000336e-02 1.672142372900000140e+01
5.304506529000000192e+00 0.000000000000000000e+00 0.000000000000000000e+00 -9.979444499999999552e-02 3.626233394999999859e+00 0.000000000000000000e+00 5.206402020000000519e-01 4.093745739999999911e-01 1.915719014300000111e+01
5.004020749999999573e+00 0.000000000000000000e+00 0.000000000000000000e+00 -8.091916999999999860e-02 3.546272383999999889e+00 0.000000000000000000e+00 -3.139052449999999994e-01 9.981621499999999980e-02 1.521037747199999934e+01
5.574414573000000317e+00 0.000000000000000000e+00 0.000000000000000000e+00 7.327229999999999854e-02 3.972018638000000212e+00 0.000000000000000000e+00 2.363187210000000094e-01 -1.882817169999999873e-01 1.798565514899999940e+01
5.472648774999999688e+00 0.000000000000000000e+00 0.000000000000000000e+00 -9.191659000000000634e-02 3.747139215999999884e+00 0.000000000000000000e+00 1.947067630000000049e-01 -3.062529970000000268e-01 1.724500174799999996e+01
5.574414573000000317e+00 0.000000000000000000e+00 0.000000000000000000e+00 7.327229999999999854e-02 3.972018638000000212e+00 0.000000000000000000e+00 2.363187210000000094e-01 -1.882817169999999873e-01 1.798565514899999940e+01
5.217672406000000151e+00 0.000000000000000000e+00 0.000000000000000000e+00 -3.522737499999999827e-02 3.652673575000000117e+00 0.000000000000000000e+00 -4.721037290000000275e-01 3.263127100000000336e-02 1.672142372900000140e+01
5.217672406000000151e+00 0.000000000000000000e+00 0.000000000000000000e+00 -3.522737499999999827e-02 3.652673575000000117e+00 0.000000000000000000e+00 -4.721037290000000275e-01 3.263127100000000336e-02 1.672142372900000140e+01
5.381091171999999645e+00 0.000000000000000000e+00 0.000000000000000000e+00 2.814871099999999987e-02 3.893775605000000084e+00 0.000000000000000000e+00 2.240791119999999970e-01 3.589200320000000000e-01 1.316880828699999917e+01
5.574414573000000317e+00 0.000000000000000000e+00 0.000000000000000000e+00 7.327229999999999854e-02 3.972018638000000212e+00 0.000000000000000000e+00 2.363187210000000094e-01 -1.882817169999999873e-01 1.798565514899999940e+01
4.835054902000000432e+00 0.000000000000000000e+00 0.000000000000000000e+00 -3.229027999999999760e-02 3.410915473999999836e+00 0.000000000000000000e+00 -3.056096280000000220e-01 5.241126999999999939e-03 1.022004570900000076e+01
4.835054902000000432e+00 0.000000000000000000e+00 0.000000000000000000e+00 -3.229027999999999760e-02 3.410915473999999836e+00 0.000000000000000000e+00 -3.056096280000000220e-01 5.241126999999999939e-03 1.022004570900000076e+01
5.326066634000000022e+00 0.000000000000000000e+00 0.000000000000000000e+00 8.717242899999999572e-02 3.984901950999999887e+00 0.000000000000000000e+00 -3.572275610000000268e-01 1.285997620000000063e-01 1.271976260699999983e+01
5.397588164000000077e+00 0.000000000000000000e+00 0.000000000000000000e+00 -9.225649499999999392e-02 3.806817843000000146e+00 0.000000000000000000e+00 3.664408350000000203e-01 -2.738864140000000225e-01 1.454306762400000075e+01
5.453730226000000236e+00 0.000000000000000000e+00 0.000000000000000000e+00 -7.524659399999999998e-02 3.785460388000000176e+00 0.000000000000000000e+00 -2.940753429999999891e-01 -4.706265539999999747e-01 1.936510299600000096e+01
5.555581400000000336e+00 0.000000000000000000e+00 0.000000000000000000e+00 -9.127699899999999755e-02 3.787044167999999988e+00 0.000000000000000000e+00 -3.900301400000000251e-01 -3.576727650000000036e-01 1.418764368699999956e+01
5.574414573000000317e+00 0.000000000000000000e+00 0.000000000000000000e+00 7.327229999999999854e-02 3.972018638000000212e+00 0.000000000000000000e+00 2.363187210000000094e-01 -1.882817169999999873e-01 1.798565514899999940e+01
5.461412508000000443e+00 0.000000000000000000e+00 0.000000000000000000e+00 7.277024599999999677e-02 3.775403181999999802e+00 0.000000000000000000e+00 3.217833199999999838e-01 -3.872563450000000018e-01 1.856826761700000006e+01
5.461412508000000443e+00 0.000000000000000000e+00 0.000000000000000000e+00 7.277024599999999677e-02 3.775403181999999802e+00 0.000000000000000000e+00 3.217833199999999838e-01 -3.872563450000000018e-01 1.856826761700000006e+01
5.574414573000000317e+00 0.000000000000000000e+00 0.000000000000000000e+00 7.327229999999999854e-02 3.972018638000000212e+00 0.000000000000000000e+00 2.363187210000000094e-01 -1.882817169999999873e-01 1.798565514899999940e+01
5.575107305999999596e+00 0.000000000000000000e+00 0.000000000000000000e+00 4.016569700000000021e-02 3.879254158000000174e+00 0.000000000000000000e+00 -2.091927409999999876e-01 -2.062535799999999989e-02 1.288631411799999960e+01
