2.012360000000000149e+00 1.036149999999999904e+00 4.384730000000000238e+00 4.373600000000000265e-01 1.489239999999999897e+00 1.833830000000000027e+01 4.195649999999999658e+00 2.305550000000000210e+00 1.024169999999999980e+01 5.272669999999999746e+00 2.239349999999999952e+00 7.624780000000000335e+00 8.975199999999999845e-01 -2.854800000000000115e-01 1.695070000000000121e+01 8.121500000000000385e-01 2.666910000000000114e+00 5.712640000000000384e+00 4.442999999999999616e+00 1.523249999999999993e+00 6.309500000000000108e-01 4.805320000000000036e+00 9.261999999999999400e-02 8.928089999999999193e+00 3.604280000000000150e+00 2.524579999999999824e+00 5.877629999999999910e+00 1.965800000000000047e-01 1.692390000000000061e+00 2.899849999999999817e+00 1.858800000000000008e+00 1.141559999999999908e+00 1.502220000000000111e+00 2.015309999999999935e+00 8.568999999999999950e-01 9.059409999999999741e+00 1.613499999999999934e+00 2.596729999999999983e+00 1.016399999999999970e+01 3.958680000000000199e+00 3.312749999999999861e+00 3.313579999999999970e+00 2.577300000000000146e+00 2.665389999999999926e+00 8.046709999999999141e+00 2.335529999999999884e+00 1.224199999999999955e+00 1.789219999999999899e+01
4.771320000000000228e+00 3.084929999999999950e+00 8.869870000000000587e+00 1.788450000000000095e+00 1.404339999999999922e+00 2.998909999999999965e+00 2.993720000000000159e+00 1.552130000000000010e+00 8.949139999999999873e+00 4.273509999999999920e+00 1.255710000000000104e+00 3.942019999999999857e+00 2.518629999999999924e+00 1.629159999999999942e+00 7.399099999999999566e-01 1.857329999999999925e+00 1.283570000000000100e+00 6.363570000000000171e+00 1.867289999999999894e+00 3.179539999999999811e+00 7.994650000000000034e+00 4.813679999999999737e+00 1.409650000000000070e+00 1.354240000000000110e+00 7.805800000000000516e-01 3.037459999999999827e+00 4.957390000000000185e+00 1.103169999999999984e+00 3.366629999999999789e+00 1.690660000000000052e+00 1.935829999999999940e+00 9.984600000000000142e-01 1.801139999999999830e+01 6.974399999999999489e-01 1.325739999999999919e+00 9.979490000000000194e+00 4.637620000000000076e+00 7.720500000000000140e-01 6.552830000000000155e+00 3.977780000000000094e+00 3.613280000000000047e+00 1.829179999999999851e+01 3.232089999999999907e+00 2.823710000000000164e+00 5.390699999999999825e+00 3.409499999999999975e+00 3.300110000000000099e+00 2.149589999999999890e+00
4.826089999999999769e+00 3.416139999999999954e+00 8.940700000000000314e-01 3.522120000000000140e+00 1.183009999999999895e+00 1.788300000000000001e+00 2.556509999999999838e+00 3.159339999999999815e+00 1.364319999999999977e+00 4.663879999999999804e+00 3.277420000000000222e+00 3.475680000000000103e+00 1.847730000000000095e+00 1.452700000000000102e-01 3.548070000000000057e+00 6.568599999999999994e-01 2.347189999999999888e+00 5.749719999999999942e+00 4.748330000000000162e+00 3.661939999999999973e+00 7.573830000000000062e+00 3.887919999999999821e+00 1.541479999999999961e+00 1.248939999999999984e+01 1.551819999999999977e+00 3.281509999999999927e+00 1.030090000000000039e+01 1.032859999999999889e+00 1.373140000000000027e+00 1.532510000000000039e+00 1.395999999999999908e+00 1.613120000000000109e+00 1.240269999999999939e+01 8.818399999999999572e-01 2.144829999999999792e+00 8.522690000000000765e+00 3.589570000000000149e+00 2.242080000000000073e+00 5.446970000000000312e+00 3.620400000000000063e+00 1.555010000000000003e+00 8.623239999999999128e+00 2.345680000000000209e+00 3.549009999999999998e+00 7.095810000000000173e+00 2.984910000000000174e+00 1.512119999999999909e+00 1.041210000000000058e+01
3.396189999999999820e+00 1.926120000000000054e+00 6.887859999999999872e+00 2.209849999999999870e+00 1.637099999999999944e-01 5.547270000000000145e+00 4.394619999999999749e+00 7.857999999999999707e-02 5.245040000000000369e+00 2.034799999999999942e-01 5.101200000000000179e-01 7.331750000000000433e+00 2.053620000000000001e+00 1.933499999999999941e-01 3.146310000000000162e+00 8.432699999999999640e-01 1.896779999999999911e+00 3.964920000000000222e+00 4.187210000000000321e+00 3.519239999999999924e+00 1.550249999999999950e+01 3.302830000000000155e+00 1.829369999999999941e+00 3.782189999999999941e+00 3.043699999999999739e-01 2.286950000000000038e+00 8.316520000000000579e+00 3.343199999999999950e+00 1.512699999999999934e+00 1.180020000000000069e+00 6.420900000000000496e-01 1.708239999999999981e+00 1.227670000000000039e+00 4.618039999999999701e+00 7.205999999999999905e-02 2.706119999999999859e+00 1.886970000000000036e+00 3.458229999999999915e+00 6.578000000000000513e-02 2.325940000000000119e+00 3.567400000000000126e+00 8.151870000000000616e+00 3.993230000000000057e+00 5.919200000000000017e-01 9.693619999999999237e+00 6.789699999999999624e-01 2.272060000000000191e+00 6.207349999999999923e+00
-1.144000000000000052e-02 3.392889999999999961e+00 9.660709999999999908e+00 2.589119999999999866e+00 2.085749999999999993e+00 1.549809999999999910e+00 2.990720000000000045e+00 2.703819999999999890e+00 1.215760000000000041e+01 2.392799999999999927e-01 9.913699999999999735e-01 4.180729999999999613e+00 4.265100000000000335e+00 2.539050000000000029e+00 1.819770000000000110e+01 7.458599999999999675e-01 2.094259999999999788e+00 6.206089999999999662e+00 2.241960000000000175e+00 2.147999999999999909e-01 1.073969999999999914e+01 1.485349999999999948e+00 2.475049999999999972e+00 1.840950000000000131e+01 3.072449999999999903e+00 1.699719999999999898e+00 5.518430000000000391e+00 1.097960000000000047e+00 3.482700000000000240e-01 1.420360000000000067e+00 2.332969999999999988e+00 3.532350000000000101e+00 1.684939999999999927e+01 5.002290000000000347e+00 1.299469999999999903e+00 1.143699999999999939e+01 2.691790000000000127e+00 2.713389999999999969e+00 8.366229999999999833e+00 4.836509999999999643e+00 7.472900000000000098e-01 1.674070000000000036e+01 2.497059999999999835e+00 4.420399999999999885e-01 3.828009999999999913e+00 3.805349999999999788e+00 1.743300000000000127e-01 7.762999999999999901e-01
2.016300000000000037e-01 1.810079999999999911e+00 2.796720000000000095e+00 2.302239999999999842e+00 4.928899999999999948e-01 3.039999999999999994e-02 -1.315999999999999982e-02 1.893270000000000008e+00 8.775959999999999539e+00 3.552000000000000296e-02 1.217799999999999994e+00 5.334270000000000067e+00 4.499729999999999563e+00 2.749099999999999877e-01 3.785899999999999821e-01 4.167069999999999830e+00 2.810869999999999980e+00 6.053720000000000212e+00 1.427550000000000097e+00 3.624000000000000110e+00 2.052169999999999828e+00 3.927929999999999922e+00 2.420100000000000029e-01 8.716110000000000468e+00 1.642120000000000024e+00 3.241940000000000044e+00 5.586859999999999715e+00 3.295009999999999994e+00 1.305420000000000025e+00 4.522730000000000139e+00 3.412619999999999987e+00 2.126459999999999795e+00 1.778820000000000068e+00 9.182700000000000307e-01 -4.028000000000000330e-02 7.457180000000000142e+00 3.174570000000000114e+00 2.014689999999999870e+00 9.140399999999999636e+00 4.475579999999999892e+00 3.508929999999999882e+00 3.821660000000000057e+00 2.521869999999999834e+00 1.659000000000000030e+00 7.271729999999999805e+00 1.818899999999999961e-01 1.841320000000000068e+00 1.912020000000000053e+01
2.111289999999999889e+00 2.225569999999999826e+00 9.268449999999999633e+00 5.141689999999999650e+00 3.009529999999999816e+00 1.876919999999999922e+00 8.448299999999999699e-01 1.229980000000000073e+00 1.094260000000000055e+01 4.169249999999999901e+00 3.496020000000000127e+00 1.378430000000000000e+01 4.294399999999999884e-01 2.659180000000000099e+00 4.922439999999999927e+00 1.575879999999999947e+00 2.632730000000000015e+00 1.429499999999999993e+00 2.458400000000000141e+00 2.510019999999999918e+00 1.226030000000000086e+01 5.257690000000000197e+00 2.495849999999999902e+00 1.229410000000000025e+01 5.324880000000000280e+00 2.225579999999999892e+00 7.274960000000000093e+00 4.758180000000000298e+00 2.350449999999999928e+00 9.783379999999999299e+00 1.659629999999999939e+00 3.921899999999999831e-01 1.369149999999999956e+01 3.057659999999999823e+00 2.697100000000000053e-01 1.010180000000000078e+01 7.079100000000000392e-01 2.892000000000000126e-02 7.441430000000000433e+00 1.199989999999999890e+00 6.656400000000000095e-01 3.641370000000000218e+00 3.832879999999999843e+00 3.743640000000000079e+00 7.650350000000000428e+00 2.240829999999999878e+00 1.702250000000000041e+00 7.055909999999999904e+00
4.826019999999999754e+00 2.018510000000000026e+00 1.342130000000000045e+01 3.326729999999999965e+00 3.114069999999999894e+00 6.188170000000000393e+00 1.547020000000000062e+00 3.195520000000000138e+00 1.076600000000000001e+01 4.632679999999999687e+00 1.115739999999999954e+00 9.824479999999999436e+00 1.577299999999999924e+00 1.410099999999999965e-01 2.482900000000000107e-01 4.549710000000000143e+00 3.853590000000000071e+00 4.454519999999999591e+00 1.244990000000000041e+00 2.547050000000000036e+00 4.299269999999999925e+00 2.637960000000000083e+00 2.100599999999999967e-01 2.621589999999999865e+00 4.400170000000000137e+00 1.791379999999999972e+00 7.509689999999999976e+00 3.069770000000000110e+00 3.713699999999999779e+00 1.314980000000000082e+01 7.699000000000000288e-01 3.560080000000000133e+00 7.787639999999999674e+00 1.390379999999999949e+00 1.291830000000000034e+00 6.298589999999999911e+00 2.138250000000000206e+00 1.494410000000000016e+00 9.196590000000000487e+00 3.484960000000000058e+00 2.005759999999999987e+00 3.772470000000000212e+00 2.795739999999999892e+00 2.032430000000000181e+00 1.033309999999999951e+00 4.686609999999999943e+00 2.103599999999999914e-01 1.782070000000000043e+00
5.291229999999999656e+00 3.641350000000000087e+00 5.222800000000000331e+00 3.837250000000000050e+00 1.735379999999999923e+00 5.278300000000000214e-01 4.112829999999999764e+00 1.822000000000000064e+00 6.993960000000000399e+00 4.078859999999999708e+00 1.781090000000000062e+00 3.294189999999999952e+00 3.851939999999999920e+00 1.896719999999999962e+00 9.671079999999999899e+00 1.316750000000000087e+00 2.475890000000000146e+00 9.928060000000000329e+00 1.466599999999999904e+00 1.658449999999999980e+00 6.293300000000000338e+00 2.803999999999999826e+00 3.592649999999999899e+00 4.694630000000000081e+00 6.463600000000000456e-01 3.034190000000000165e+00 1.160490000000000066e+01 2.731939999999999813e+00 3.473970000000000002e+00 2.026100000000000012e+00 3.428199999999999914e+00 3.472999999999999976e-01 1.198249999999999993e+01 1.300559999999999938e+00 2.225909999999999833e+00 6.023600000000000065e-01 1.444560000000000066e+00 1.977100000000000080e+00 3.675510000000000055e+00 2.699889999999999901e+00 2.205300000000000038e-01 8.422860000000000014e+00 5.226040000000000241e+00 2.262899999999999912e-01 8.195090000000000430e+00 5.186860000000000248e+00 9.178999999999999659e-02 2.158679999999999932e+00
7.223899999999999766e-01 4.076000000000000179e-01 8.158540000000000347e+00 5.889999999999999680e-01 3.934050000000000047e+00 1.165910000000000046e+01 2.306830000000000158e+00 1.829509999999999970e+00 1.186509999999999998e+01 3.549920000000000186e+00 3.611520000000000064e+00 1.229579999999999984e+01 3.413720000000000088e+00 2.765270000000000117e+00 2.537430000000000074e+00 2.355500000000000094e-01 7.629599999999999715e-01 5.916199999999999903e+00 1.052799999999999986e-01 2.516490000000000116e+00 9.188489999999999824e+00 4.543770000000000309e+00 1.423550000000000093e+00 7.751099999999999657e-01 3.973450000000000149e+00 2.691199999999999815e+00 6.127640000000000420e+00 4.579860000000000042e+00 1.877140000000000031e+00 1.131329999999999991e+01 2.875100000000000211e+00 1.239309999999999912e+00 8.364940000000000708e+00 2.789229999999999876e+00 4.943600000000000216e-01 6.359530000000000349e+00 4.032519999999999882e+00 4.070759999999999934e+00 1.002820000000000000e+01 3.903500000000000192e+00 7.451200000000000045e-01 3.833870000000000111e+00 1.594710000000000072e+00 2.563619999999999788e+00 6.757520000000000415e+00 8.379299999999999526e-01 2.123650000000000038e+00 1.207629999999999981e+00
4.295849999999999724e+00 1.651370000000000005e+00 4.264090000000000380e+00 5.113730000000000331e+00 1.281679999999999930e+00 1.186730000000000063e+00 1.127590000000000092e+00 1.941179999999999906e+00 4.145159999999999734e+00 3.847249999999999837e+00 3.083720000000000017e+00 1.121299999999999936e-01 1.439999999999999947e+00 2.628979999999999873e+00 7.489499999999999602e+00 2.812619999999999898e+00 2.450600000000000001e-01 8.543369999999999465e+00 1.831080000000000041e+00 1.939529999999999976e+00 1.421740000000000004e+00 2.628890000000000171e+00 4.530899999999999928e-01 6.026519999999999655e+00 3.630650000000000155e+00 2.014969999999999928e+00 9.823019999999999641e+00 3.870620000000000172e+00 2.501970000000000027e+00 7.297139999999999738e+00 1.480240000000000000e+00 3.770989999999999842e+00 2.096699999999999953e-01 3.554199999999999804e+00 3.582590000000000163e+00 2.957920000000000105e+00 4.812129999999999797e+00 3.814849999999999852e+00 1.014000000000000057e+01 4.185319999999999929e+00 4.253770000000000273e+00 1.797919999999999874e+01 4.889669999999999739e+00 7.865999999999999659e-01 8.021250000000000213e+00 5.488529999999999909e+00 3.577900000000000080e+00 5.624010000000000176e+00
5.173809999999999576e+00 1.528510000000000035e+00 5.544700000000000184e-01 3.975000000000000200e-01 1.523079999999999989e+00 6.046850000000000058e+00 2.731549999999999923e+00 2.978340000000000209e+00 9.924170000000000158e+00 4.901769999999999960e+00 3.076799999999999979e+00 9.164300000000000779e+00 4.391460000000000363e+00 2.525200000000000222e-01 1.169950000000000045e+01 2.087759999999999838e+00 3.035379999999999967e+00 5.299540000000000362e+00 4.712989999999999569e+00 2.621259999999999923e+00 3.092750000000000110e+00 1.115799999999999903e+00 3.269299999999999984e-01 2.013069999999999915e+00 3.357969999999999899e+00 3.850950000000000095e+00 7.361089999999999911e+00 1.918339999999999934e+00 5.311500000000000110e-01 1.203630000000000067e+01 3.912599999999999967e-01 1.232620000000000049e+00 9.963409999999999656e+00 9.850200000000000067e-01 3.350459999999999994e+00 7.568290000000000184e+00 7.126700000000000257e-01 2.339859999999999829e+00 1.235740000000000016e+01 3.114599999999999813e+00 1.901929999999999898e+00 3.768600000000000172e+00 2.321279999999999788e+00 3.114180000000000170e+00 1.294200000000000073e-01 3.461160000000000014e+00 6.314999999999999503e-01 1.374640000000000084e+00
4.571240000000000414e+00 1.302720000000000100e+00 7.552209999999999646e+00 1.910150000000000015e+00 3.599610000000000198e+00 1.892630000000000035e+00 3.944000000000000283e-02 3.939000000000000140e-02 1.134200000000000053e+01 -1.714799999999999935e-01 3.321460000000000079e+00 6.390710000000000335e+00 1.518620000000000081e+00 1.747120000000000006e+00 6.551929999999999588e+00 3.492379999999999818e+00 1.300499999999999989e+00 3.156080000000000219e+00 9.642800000000000260e-01 3.731200000000000072e-01 1.632639999999999958e+01 2.529830000000000023e+00 2.374699999999999867e-01 1.508810000000000073e+01 4.866719999999999935e+00 5.908000000000000057e-02 3.924850000000000172e+00 3.262799999999999923e+00 1.853439999999999976e+00 9.743980000000000530e+00 1.223249999999999948e+00 2.109309999999999796e+00 1.396819999999999951e+01 8.437200000000000255e-01 1.823679999999999968e+00 8.997640000000000526e+00 2.653929999999999900e+00 3.405209999999999848e+00 5.034119999999999706e+00 3.013939999999999841e+00 1.579679999999999973e+00 3.396500000000000075e-01 2.639100000000000001e+00 3.282000000000000028e+00 7.811099999999999710e+00 4.717240000000000322e+00 3.409499999999999975e+00 1.577239999999999975e+00
3.626700000000000035e+00 1.323250000000000037e+00 5.644459999999999589e+00 4.383899999999999686e+00 2.096159999999999801e+00 1.847960000000000136e+01 1.132759999999999989e+00 1.541549999999999976e+00 5.399680000000000035e+00 2.662770000000000081e+00 3.475359999999999783e+00 4.157799999999999940e+00 3.931509999999999838e+00 8.507200000000000317e-01 8.505380000000000607e+00 5.104540000000000077e+00 3.054429999999999978e+00 6.568740000000000023e+00 3.896999999999999770e-02 3.609500000000000153e+00 9.165200000000000014e-01 3.577809999999999935e+00 1.878379999999999939e+00 2.480729999999999880e+00 4.180329999999999657e+00 3.208019999999999872e+00 1.024510000000000076e+01 2.588929999999999954e+00 3.138299999999999979e-01 1.280920000000000059e+00 2.412999999999999812e+00 3.121539999999999981e+00 6.395089999999999719e+00 2.902629999999999821e+00 3.811479999999999979e+00 1.791669999999999874e+01 1.340740000000000043e+00 3.393590000000000106e+00 8.822810000000000485e+00 1.541600000000000081e+00 1.784650000000000070e+00 9.289999999999999647e-03 5.078479999999999883e+00 8.523999999999999633e-02 3.489149999999999974e+00 5.351429999999999687e+00 1.459489999999999954e+00 1.003989999999999938e+01
4.307750000000000412e+00 1.768399999999999972e-01 1.502989999999999959e+01 2.714109999999999800e+00 1.900169999999999915e+00 1.468560000000000088e+01 2.679269999999999818e+00 1.233919999999999906e+00 6.817020000000000302e+00 3.504690000000000083e+00 2.324900000000000022e-01 4.658680000000000376e+00 3.328899999999999970e+00 2.760079999999999867e+00 8.505770000000000053e+00 1.808099999999999985e-01 2.116000000000000172e-02 2.584169999999999856e+00 1.632800000000000029e+00 1.887080000000000091e+00 3.666539999999999910e+00 2.828190000000000204e+00 8.827999999999999736e-02 1.696029999999999927e+00 5.738100000000000422e-01 1.124460000000000015e+00 8.176769999999999428e+00 1.379410000000000025e+00 5.382299999999999862e-01 1.324970000000000070e+01 4.191569999999999574e+00 1.935499999999999998e+00 3.507690000000000197e+00 4.862199999999999855e-01 2.833009999999999806e+00 1.099549999999999983e+01 -7.890999999999999404e-02 1.944520000000000026e+00 5.692280000000000229e+00 8.610499999999999821e-01 1.921480000000000077e+00 8.932299999999999685e-01 1.096570000000000045e+00 4.117399999999999949e-01 4.996249999999999858e+00 2.439760000000000151e+00 3.033840000000000092e+00 1.105959999999999965e+01
2.666020000000000056e+00 6.745799999999999574e-01 6.205829999999999735e+00 3.621129999999999960e+00 1.113329999999999931e+00 1.156339999999999968e+01 4.719610000000000305e+00 1.176679999999999948e+00 9.356930000000000192e+00 2.376290000000000013e+00 3.249680000000000124e+00 3.902740000000000098e+00 2.345340000000000202e+00 7.139499999999999735e-01 1.311139999999999972e+00 4.732730000000000103e+00 3.652439999999999909e+00 5.079159999999999897e+00 4.013480000000000381e+00 2.820510000000000073e+00 7.911710000000000242e+00 1.305390000000000050e+00 2.501619999999999955e+00 5.647289999999999921e+00 2.500729999999999897e+00 2.918400000000000105e+00 1.741450000000000031e+01 7.888899999999999801e-01 3.737659999999999982e+00 8.542199999999999349e+00 6.953399999999999581e-01 1.616440000000000099e+00 3.125680000000000014e+00 3.371129999999999960e+00 1.393969999999999931e+00 4.036159999999999748e+00 2.000459999999999905e+00 2.012760000000000105e+00 9.563259999999999650e+00 4.387760000000000105e+00 3.641760000000000108e+00 4.538499999999999757e-01 1.130079999999999973e+00 7.970300000000000162e-01 1.742310000000000159e+01 4.915800000000000169e-01 2.553030000000000133e+00 9.646099999999999675e-01
9.131299999999999972e-01 1.687899999999999956e+00 4.061239999999999739e+00 4.916520000000000223e+00 1.542729999999999935e+00 8.744419999999999860e+00 2.503519999999999968e+00 7.664100000000000357e-01 7.434110000000000440e+00 8.406599999999999628e-01 3.072509999999999852e+00 9.046329999999999316e+00 2.378460000000000019e+00 3.351739999999999942e+00 4.838560000000000194e+00 3.243160000000000043e+00 1.586440000000000072e+00 1.004649999999999999e+01 4.268040000000000056e+00 3.519210000000000171e+00 7.309730000000000061e+00 4.431449999999999889e+00 1.903219999999999912e+00 5.920099999999999696e+00 4.951789999999999914e+00 2.694999999999999840e+00 1.888719999999999954e+00 1.198350000000000026e+00 8.279699999999999838e-01 1.471349999999999936e+00 6.578699999999999548e-01 2.783529999999999838e+00 1.718380000000000152e+01 3.691250000000000142e+00 4.965399999999999814e-01 8.208100000000000396e-01 2.084270000000000067e+00 3.068519999999999914e+00 2.584569999999999812e+00 1.242199999999999971e+00 1.650830000000000020e+00 6.170759999999999579e+00 3.733070000000000110e+00 1.195149999999999935e+00 3.238039999999999807e+00 3.120010000000000172e+00 1.687510000000000066e+00 1.656070000000000064e+01
2.714010000000000034e+00 8.274500000000000188e-01 6.326830000000000176e+00 3.434460000000000068e+00 1.053339999999999943e+00 1.173729999999999940e+01 4.531220000000000248e+00 1.246639999999999970e+00 9.490119999999999223e+00 2.514060000000000183e+00 3.401949999999999807e+00 3.869339999999999780e+00 2.424310000000000187e+00 4.870800000000000129e-01 1.314990000000000103e+00 4.938679999999999737e+00 3.504080000000000084e+00 5.181119999999999948e+00 3.869139999999999802e+00 2.765489999999999782e+00 7.978720000000000034e+00 1.215470000000000050e+00 2.371280000000000054e+00 5.687260000000000204e+00 2.635920000000000041e+00 2.940539999999999932e+00 1.723610000000000042e+01 9.455999999999999961e-01 3.806119999999999948e+00 8.540599999999999525e+00 8.912299999999999667e-01 1.479689999999999950e+00 3.199590000000000156e+00 3.324990000000000112e+00 1.367259999999999920e+00 3.966849999999999987e+00 1.776310000000000056e+00 2.184429999999999872e+00 9.453910000000000480e+00 4.258409999999999584e+00 3.652719999999999967e+00 3.905100000000000238e-01 1.104249999999999954e+00 7.659299999999999997e-01 1.725519999999999854e+01 5.678900000000000059e-01 2.719840000000000035e+00 8.731900000000000217e-01
3.768180000000000085e+00 1.411780000000000035e+00 7.067870000000000097e+00 2.787420000000000009e+00 7.123500000000000387e-01 2.177579999999999849e+00 2.025599999999999901e-01 2.013889999999999958e+00 9.010970000000000368e+00 4.712010000000000254e+00 6.867900000000000116e-01 5.025159999999999627e+00 4.613499999999999823e-01 2.476840000000000153e+00 6.064669999999999561e+00 3.908319999999999794e+00 2.572659999999999947e+00 3.901380000000000070e+00 8.467200000000000282e-01 2.550629999999999953e+00 1.532600000000000051e+01 4.071159999999999890e+00 2.074339999999999851e+00 2.079999999999999818e-03 1.450830000000000064e+00 2.719390000000000196e+00 3.527089999999999836e+00 3.966670000000000140e+00 2.737899999999999778e-01 9.394050000000000011e+00 2.350000000000000006e-02 7.180999999999999606e-01 1.558849999999999980e+01 2.534749999999999837e+00 2.504300000000000193e+00 9.839079999999999160e+00 2.154830000000000023e+00 7.475600000000000023e-01 5.415259999999999962e+00 7.799500000000000322e-01 2.913339999999999819e+00 7.693999999999999728e-01 1.873580000000000023e+00 4.254000000000000142e-02 7.941169999999999618e+00 5.040670000000000428e+00 1.339690000000000047e+00 1.925189999999999957e+00
3.753919999999999924e+00 1.318000000000000060e+00 7.146989999999999732e+00 2.793610000000000149e+00 6.987400000000000277e-01 2.311970000000000081e+00 1.440599999999999936e-01 2.095169999999999977e+00 8.950599999999999667e+00 4.738679999999999559e+00 6.898600000000000287e-01 4.875090000000000146e+00 5.704399999999999471e-01 2.618559999999999999e+00 6.114029999999999632e+00 3.795360000000000067e+00 2.611310000000000020e+00 4.039380000000000415e+00 8.049500000000000544e-01 2.567919999999999980e+00 1.517789999999999928e+01 3.516399999999999970e+00 1.965750000000000108e+00 1.667960000000000065e+01 1.464150000000000063e+00 2.742280000000000051e+00 3.691240000000000077e+00 4.004069999999999574e+00 3.955799999999999872e-01 9.235609999999999431e+00 3.935000000000000303e-02 6.764700000000000157e-01 1.538809999999999967e+01 2.529529999999999834e+00 2.436920000000000197e+00 9.923750000000000071e+00 2.151479999999999837e+00 7.343199999999999728e-01 5.296160000000000423e+00 9.717700000000000227e-01 2.979760000000000186e+00 8.961700000000000221e-01 1.761430000000000051e+00 3.595829999999999860e+00 7.946769999999999889e+00 5.035949999999999704e+00 1.316810000000000036e+00 2.023519999999999985e+00
4.951590000000000380e+00 3.184629999999999850e+00 1.054739999999999966e+01 3.637599999999999723e-01 1.419810000000000016e+00 1.188589999999999947e+01 1.866079999999999961e+00 3.044989999999999863e+00 5.390229999999999855e+00 3.004200000000000204e-01 1.130910000000000082e+00 5.912049999999999805e+00 3.205529999999999990e+00 9.210899999999999643e-01 5.526970000000000383e+00 5.322219999999999729e+00 3.108699999999999797e+00 1.648290000000000033e+00 4.778310000000000279e+00 5.759699999999999820e-01 8.780549999999999855e+00 4.499620000000000175e+00 2.759100000000000108e+00 4.003160000000000274e+00 3.328990000000000116e+00 3.309470000000000134e+00 1.259239999999999959e+01 1.386439999999999895e+00 1.181440000000000046e+00 7.197799999999999754e-01 3.051369999999999916e+00 4.049820000000000420e+00 8.305680000000000618e+00 1.693130000000000024e+00 1.490240000000000009e+00 3.518040000000000056e+00 2.536859999999999893e+00 1.316189999999999971e+00 1.095509999999999984e+01 4.035639999999999894e+00 1.285190000000000055e+00 6.550599999999999756e-01 2.756390000000000118e+00 3.049999999999999822e+00 2.093900000000000095e+00 9.126699999999999813e-01 2.091040000000000010e+00 8.720459999999999212e+00
2.120899999999999785e+00 2.773700000000000054e-01 6.157490000000000130e+00 5.602179999999999715e+00 1.456550000000000011e+00 1.038760000000000083e+01 5.505150000000000432e+00 9.682699999999999640e-01 8.437120000000000175e+00 1.357369999999999965e+00 3.205189999999999984e+00 2.715349999999999930e+00 2.251520000000000188e+00 1.384090000000000042e+00 2.300860000000000127e+00 4.191360000000000419e+00 3.635069999999999801e+00 4.922439999999999927e+00 4.390030000000000321e+00 3.123829999999999885e+00 7.331570000000000142e+00 5.178199999999999470e-01 2.266579999999999817e+00 6.398979999999999890e+00 2.527350000000000207e+00 3.046839999999999993e+00 3.521799999999999931e-01 2.110520000000000174e+00 2.644309999999999938e+00 8.179100000000000037e+00 3.517799999999999816e-01 1.376200000000000090e+00 4.129489999999999661e+00 2.252339999999999787e+00 2.406629999999999825e+00 4.906629999999999825e+00 3.278350000000000097e+00 8.400400000000000089e-01 8.264590000000000103e+00 4.073459999999999859e+00 9.245999999999999774e-01 1.521800000000000097e-01 8.959399999999999586e-01 8.410800000000000498e-01 3.288400000000000212e-01 4.748400000000000176e+00 2.581719999999999793e+00 1.565919999999999979e+00
-5.276000000000000134e-02 3.277870000000000061e+00 2.166230000000000100e+00 3.959340000000000082e+00 1.624190000000000023e+00 8.944620000000000459e+00 1.594969999999999999e+00 1.385899999999999910e+00 8.472199999999999731e-01 3.509570000000000078e+00 1.777050000000000018e+00 3.973770000000000024e+00 1.804720000000000102e+00 5.201999999999999680e-02 7.015789999999999971e+00 4.533909999999999663e+00 1.597699999999999954e-01 5.092130000000000045e+00 2.159539999999999793e+00 3.108989999999999920e+00 2.482489999999999863e+00 1.235659999999999981e+00 1.593339999999999979e+00 8.768110000000000070e+00 4.221350000000000158e+00 1.827900000000000080e-01 7.437009999999999899e+00 2.967200000000000060e+00 2.030870000000000175e+00 6.100279999999999703e+00 4.103499999999999925e-01 3.351550000000000029e+00 6.802999999999999325e-02 1.929959999999999898e+00 1.906400000000000039e-01 4.898990000000000400e+00 8.527900000000000480e-01 1.750000000000000000e+00 3.617170000000000218e+00 2.630809999999999871e+00 3.382140000000000146e+00 9.546340000000000714e+00 3.775889999999999969e+00 1.564880000000000049e+00 1.100700000000000012e+00 5.649499999999999522e-01 1.889939999999999953e+00 6.236909999999999954e+00
4.721540000000000070e+00 3.284269999999999801e+00 2.360079999999999956e+00 3.229880000000000084e+00 1.789709999999999912e+00 8.824989999999999668e+00 1.072940000000000005e+00 1.761430000000000051e+00 1.073909999999999920e+00 2.943000000000000060e+00 1.864910000000000068e+00 3.540799999999999947e+00 2.423480000000000079e+00 3.343129999999999935e+00 7.601390000000000313e+00 4.304070000000000285e+00 3.298369999999999802e+00 4.681259999999999977e+00 2.390629999999999811e+00 5.649999999999999641e-03 2.160429999999999851e+00 1.200090000000000101e+00 1.797779999999999934e+00 8.772610000000000241e+00 2.222999999999999976e-02 1.185100000000000042e-01 7.306350000000000122e+00 3.328879999999999839e+00 1.905939999999999968e+00 6.234869999999999912e+00 1.787600000000000022e-01 3.409100000000000019e+00 1.004010000000000069e+01 2.114990000000000148e+00 3.980999999999999817e-02 4.913850000000000051e+00 8.364399999999999613e-01 1.680849999999999955e+00 3.959090000000000220e+00 2.407039999999999846e+00 3.283689999999999998e+00 9.959120000000000417e+00 3.656080000000000219e+00 1.507530000000000037e+00 8.452199999999999713e-01 9.303200000000000358e-01 1.647410000000000041e+00 6.241789999999999949e+00