4.593428375000000230e+00 0.000000000000000000e+00 0.000000000000000000e+00 1.139741699999999996e-02 2.600326117999999909e+00 0.000000000000000000e+00 -3.187307939999999840e-01 -2.897356400000000165e-01 1.961587197300000085e+01
4.354048031999999679e+00 0.000000000000000000e+00 0.000000000000000000e+00 -4.801335999999999798e-03 2.523254515000000087e+00 0.000000000000000000e+00 -4.610478459999999834e-01 -3.357265979999999872e-01 2.043139800100000159e+01
4.250760234000000359e+00 0.000000000000000000e+00 0.000000000000000000e+00 2.254528600000000119e-02 2.405446250999999869e+00 0.000000000000000000e+00 -3.960391529999999771e-01 2.766729479999999741e-01 1.899983167499999936e+01
4.670811461000000442e+00 0.000000000000000000e+00 0.000000000000000000e+00 -6.382728099999999960e-02 2.789895763000000084e+00 0.000000000000000000e+00 1.537099429999999878e-01 3.160225369999999923e-01 1.755656272899999948e+01
4.354085913999999669e+00 0.000000000000000000e+00 0.000000000000000000e+00 -1.831429399999999832e-02 2.551083127000000061e+00 0.000000000000000000e+00 2.695328080000000126e-01 2.351075850000000078e-01 1.888716608800000074e+01
4.475936233999999736e+00 0.000000000000000000e+00 0.000000000000000000e+00 -7.125686400000000309e-02 2.518826400000000021e+00 0.000000000000000000e+00 2.114145080000000010e-01 3.077358459999999796e-01 1.761963226099999957e+01
4.538797420999999943e+00 0.000000000000000000e+00 0.000000000000000000e+00 -1.655641100000000004e-02 2.592650292000000078e+00 0.000000000000000000e+00 2.585901840000000007e-01 -2.020153610000000044e-01 2.036954560799999925e+01
4.588387477999999575e+00 0.000000000000000000e+00 0.000000000000000000e+00 5.187677300000000102e-02 2.730729886000000217e+00 0.000000000000000000e+00 -1.774588510000000008e-01 -3.928247120000000203e-01 1.836566998200000000e+01
4.310868656000000243e+00 0.000000000000000000e+00 0.000000000000000000e+00 -5.560239399999999943e-02 2.461965747999999898e+00 0.000000000000000000e+00 2.376933280000000093e-01 1.078215829999999986e-01 1.280994736299999914e+01
4.525708951000000368e+00 0.000000000000000000e+00 0.000000000000000000e+00 5.466742499999999866e-02 2.537043548000000204e+00 0.000000000000000000e+00 1.255586519999999928e-01 5.771574200000000043e-02 2.135920257500000119e+01
4.310868656000000243e+00 0.000000000000000000e+00 0.000000000000000000e+00 -5.560239399999999943e-02 2.461965747999999898e+00 0.000000000000000000e+00 2.376933280000000093e-01 1.078215829999999986e-01 1.280994736299999914e+01
4.416475204000000154e+00 0.000000000000000000e+00 0.000000000000000000e+00 -5.457758599999999738e-02 2.574003595999999838e+00 0.000000000000000000e+00 1.887286539999999957e-01 4.365635119999999869e-01 2.197413725899999903e+01
4.392238740999999891e+00 0.000000000000000000e+00 0.000000000000000000e+00 1.561751500000000022e-02 2.487802593000000062e+00 0.000000000000000000e+00 8.900831400000000504e-02 3.295065970000000122e-01 1.365658469699999955e+01
4.538797420999999943e+00 0.000000000000000000e+00 0.000000000000000000e+00 -1.655641100000000004e-02 2.592650292000000078e+00 0.000000000000000000e+00 2.585901840000000007e-01 -2.020153610000000044e-01 2.036954560799999925e+01
4.354085913999999669e+00 0.000000000000000000e+00 0.000000000000000000e+00 -1.831429399999999832e-02 2.551083127000000061e+00 0.000000000000000000e+00 2.695328080000000126e-01 2.351075850000000078e-01 1.888716608800000074e+01
4.310868656000000243e+00 0.000000000000000000e+00 0.000000000000000000e+00 -5.560239399999999943e-02 2.461965747999999898e+00 0.000000000000000000e+00 2.376933280000000093e-01 1.078215829999999986e-01 1.280994736299999914e+01
4.657578846999999911e+00 0.000000000000000000e+00 0.000000000000000000e+00 -5.730537200000000025e-02 2.550893358999999805e+00 0.000000000000000000e+00 3.671454570000000084e-01 -4.819672079999999803e-01 1.868044006299999893e+01
4.643297244000000212e+00 0.000000000000000000e+00 0.000000000000000000e+00 -9.202257999999999619e-03 2.662557683999999814e+00 0.000000000000000000e+00 -3.228008780000000133e-01 -5.259713099999999697e-01 2.070416537399999868e+01
4.588387477999999575e+00 0.000000000000000000e+00 0.000000000000000000e+00 5.187677300000000102e-02 2.730729886000000217e+00 0.000000000000000000e+00 -1.774588510000000008e-01 -3.928247120000000203e-01 1.836566998200000000e+01
4.302458541000000025e+00 0.000000000000000000e+00 0.000000000000000000e+00 6.681952900000000251e-02 2.454999189000000026e+00 0.000000000000000000e+00 -1.121323159999999958e-01 9.414433799999999408e-02 1.248798765099999919e+01
4.342405175999999756e+00 0.000000000000000000e+00 0.000000000000000000e+00 -4.665759099999999826e-02 2.538784720999999855e+00 0.000000000000000000e+00 -5.381520859999999740e-01 -4.661707399999999724e-01 2.204357327700000013e+01
4.657578846999999911e+00 0.000000000000000000e+00 0.000000000000000000e+00 -5.730537200000000025e-02 2.550893358999999805e+00 0.000000000000000000e+00 3.671454570000000084e-01 -4.819672079999999803e-01 1.868044006299999893e+01
4.368611050000000162e+00 0.000000000000000000e+00 0.000000000000000000e+00 -3.458149600000000323e-02 2.467130126999999895e+00 0.000000000000000000e+00 4.956362519999999994e-01 -3.720910969999999818e-01 1.828288894399999975e+01
4.743795394000000165e+00 0.000000000000000000e+00 0.000000000000000000e+00 4.774976899999999747e-02 2.675099536999999916e+00 0.000000000000000000e+00 2.348144640000000005e-01 2.216402879999999909e-01 1.660274763299999989e+01
4.672272515000000404e+00 0.000000000000000000e+00 0.000000000000000000e+00 -5.184724400000000066e-02 2.691706166999999983e+00 0.000000000000000000e+00 2.145009499999999888e-02 -3.087231500000000017e-01 2.178390758000000105e+01
4.657578846999999911e+00 0.000000000000000000e+00 0.000000000000000000e+00 -5.730537200000000025e-02 2.550893358999999805e+00 0.000000000000000000e+00 3.671454570000000084e-01 -4.819672079999999803e-01 1.868044006299999893e+01
4.832685784999999790e+00 0.000000000000000000e+00 0.000000000000000000e+00 -5.581757999999999859e-02 2.718644250000000095e+00 0.000000000000000000e+00 2.040880690000000108e-01 -5.050265800000000027e-01 1.723670288799999994e+01
4.302458541000000025e+00 0.000000000000000000e+00 0.000000000000000000e+00 6.681952900000000251e-02 2.454999189000000026e+00 0.000000000000000000e+00 -1.121323159999999958e-01 9.414433799999999408e-02 1.248798765099999919e+01
4.325734373999999605e+00 0.000000000000000000e+00 0.000000000000000000e+00 4.912996299999999872e-02 2.423583112999999845e+00 0.000000000000000000e+00 -3.493045989999999934e-01 3.126190799999999798e-02 1.540487572800000038e+01
4.368284509999999621e+00 0.000000000000000000e+00 0.000000000000000000e+00 -5.310823299999999775e-02 2.510570030999999869e+00 0.000000000000000000e+00 2.815119340000000192e-01 2.017755730000000136e-01 1.611785714399999847e+01
