1.405799999999999939e+00 5.966299999999999937e-01 1.231459999999999999e+00 2.615499999999999936e+00 7.662700000000000067e-01 4.551269999999999705e+00 3.276639999999999997e+00 1.496960000000000068e+00 2.498499999999999888e-01 -1.712200000000000111e-01 5.387199999999999767e-01 1.123479999999999990e+01 1.116589999999999971e+00 1.175480000000000080e+00 6.792919999999999625e+00 1.804100000000000037e+00 -5.659000000000000141e-02 1.181080000000000041e+01 1.366900000000000004e+00 6.139200000000000212e-01 1.877240000000000109e+01 3.583930000000000060e+00 3.194000000000000311e-02 6.861449999999999605e+00 3.625430000000000152e+00 2.493269999999999875e+00 2.231869999999999798e+00 2.808609999999999829e+00 5.228399999999999714e-01 9.528140000000000498e+00 1.776000000000000148e-02 1.891529999999999934e+00 4.546050000000000146e+00 1.651700000000000113e-01 1.659480000000000066e+00 9.098449999999999704e+00
2.630149999999999988e+00 1.294440000000000035e+00 8.369659999999999656e+00 6.015200000000000546e-01 3.778900000000000037e-01 4.563380000000000436e+00 5.365799999999999459e-01 9.534500000000000197e-01 1.939610000000000056e+01 2.940010000000000012e+00 7.693299999999999583e-01 1.938629999999999853e+01 2.868780000000000108e+00 2.396739999999999871e+00 8.351399999999999935e-01 4.247099999999999764e-01 -2.436999999999999930e-02 9.135830000000000339e+00 7.612400000000000277e-01 2.320349999999999913e+00 6.909930000000000128e+00 2.332349999999999923e+00 1.298470000000000013e+00 1.132980000000000054e+01 6.881000000000000449e-01 1.241640000000000077e+00 1.606829999999999981e+00 6.215999999999999998e-02 3.448100000000000054e-01 1.172170000000000023e+01 2.895059999999999967e+00 3.497700000000000253e-01 6.127329999999999721e+00 2.685740000000000016e+00 2.121550000000000047e+00 3.466149999999999842e+00
4.009920000000000151e+00 2.439049999999999940e+00 1.124050000000000082e+01 3.463300000000000267e-01 2.603159999999999918e+00 1.530780000000000030e+01 1.892699999999999938e-01 1.425019999999999953e+00 9.069589999999999819e+00 1.963600000000000012e+00 1.349159999999999915e+00 1.205400000000000027e+01 3.737060000000000048e+00 2.917199999999999793e-01 6.882450000000000401e+00 2.412420000000000009e+00 1.591939999999999911e+00 1.639920000000000044e+01 6.264300000000000423e-01 2.574399999999999800e+00 1.756909999999999883e+01 1.901310000000000056e+00 1.567069999999999963e+00 1.418190000000000062e+01 3.753540000000000099e+00 1.001319999999999988e+00 4.607120000000000104e+00 2.404980000000000118e+00 4.240200000000000080e-01 9.879279999999999617e+00 -8.998000000000000442e-02 1.539309999999999956e+00 1.328439999999999976e+01 1.581749999999999989e+00 2.051790000000000003e+00 5.694700000000000095e+00
3.269800000000000040e+00 8.670099999999999474e-01 1.655659999999999954e+01 4.241679999999999673e+00 1.125680000000000014e+00 6.007819999999999716e+00 4.664990000000000414e+00 1.695230000000000015e+00 8.306179999999999453e+00 4.287630000000000052e+00 1.909820000000000073e+00 1.165780000000000038e+00 1.866859999999999964e+00 4.829100000000000059e-01 1.436160000000000103e+00 1.305109999999999992e+00 1.384179999999999966e+00 3.704649999999999999e+00 6.250999999999999890e-01 1.338789999999999925e+00 1.067420000000000080e+01 2.702170000000000183e+00 2.681599999999999984e+00 7.734280000000000044e+00 2.444529999999999870e+00 1.356829999999999981e+00 9.425010000000000332e+00 3.292349999999999888e+00 2.484420000000000073e+00 3.254550000000000054e+00 1.744629999999999903e+00 2.253000000000000114e+00 5.586030000000000051e+00 2.620039999999999925e+00 6.885700000000000154e-01 1.128200000000000003e+01
4.542290000000000383e+00 1.866980000000000084e+00 1.844369999999999976e+01 5.758699999999999930e-01 2.348219999999999974e+00 5.218429999999999680e+00 1.554100000000000037e+00 1.177140000000000075e+00 1.012330000000000041e+01 2.310589999999999922e+00 6.738600000000000145e-01 8.372189999999999799e+00 2.742539999999999978e+00 1.118000000000000105e+00 5.914460000000000051e+00 1.618780000000000108e+00 5.759000000000000230e-02 1.001600000000000046e+00 2.700460000000000083e+00 1.104530000000000012e+00 1.755709999999999837e+01 2.476299999999999890e-01 3.237099999999999977e-01 7.286920000000000286e+00 7.621700000000000141e-01 2.683499999999999996e+00 1.206279999999999930e+01 4.188659999999999606e+00 2.285950000000000149e+00 2.316180000000000128e+00 3.883830000000000116e+00 2.262309999999999821e+00 9.732329999999999259e+00 2.332829999999999959e+00 6.578100000000000058e-01 3.320689999999999920e+00
3.391059999999999963e+00 2.169770000000000199e+00 3.820809999999999818e+00 9.031099999999999683e-01 1.794699999999999962e+00 7.298899999999999721e+00 4.557399999999999785e-01 2.308300000000000074e-01 1.881580000000000030e+00 6.478800000000000114e-01 9.997500000000000275e-01 1.159839999999999982e+01 3.144700000000000273e-01 2.430919999999999970e+00 9.222329999999999472e+00 4.085890000000000022e+00 1.210229999999999917e+00 1.741110000000000113e+01 2.569630000000000081e+00 1.003710000000000102e+00 8.872510000000000119e+00 3.173690000000000122e+00 7.460999999999999854e-01 6.126780000000000115e+00 1.682649999999999979e+00 5.070200000000000262e-01 1.584200000000000053e+01 1.773959999999999981e+00 1.930350000000000010e+00 8.952999999999999847e-02 1.169419999999999904e+00 1.164919999999999956e+00 4.044200000000000017e+00 2.975210000000000132e+00 2.633719999999999839e+00 1.209950000000000081e+01
1.352759999999999962e+00 6.489099999999999868e-01 1.734690000000000065e+00 3.914670000000000094e+00 4.179800000000000182e-01 3.965269999999999850e+00 4.401919999999999611e+00 2.318340000000000067e+00 6.153459999999999930e+00 9.570300000000000473e-01 2.327630000000000088e+00 9.824270000000000280e+00 1.535139999999999949e+00 1.671959999999999891e+00 3.786709999999999798e+00 1.942760000000000042e+00 1.092530000000000001e+00 1.910679999999999978e+01 3.838200000000000056e+00 2.262210000000000054e+00 2.022769999999999868e+01 1.184250000000000025e+00 8.739599999999999591e-01 8.114060000000000272e+00 2.859599999999999920e+00 1.386870000000000047e+00 1.041760000000000019e+01 3.816349999999999909e+00 1.427429999999999977e+00 2.019670000000000076e+00 2.390589999999999993e+00 1.262399999999999967e+00 6.113400000000000389e+00 2.291700000000000126e-01 1.451519999999999921e+00 1.156920000000000037e+01
3.330919999999999881e+00 2.178949999999999942e+00 1.666689999999999827e+01 2.460859999999999825e+00 5.185000000000000026e-02 2.733499999999999819e+00 9.334400000000000475e-01 2.469549999999999912e+00 4.547119999999999607e+00 2.506400000000000183e+00 8.116900000000000226e-01 6.978439999999999976e+00 1.152090000000000058e+00 2.137290000000000134e+00 1.643850000000000122e+01 3.051620000000000221e+00 1.073159999999999892e+00 4.596619999999999706e+00 3.438750000000000195e+00 2.083099999999999952e-01 1.251999999999999957e+01 5.881899999999999906e-01 2.302760000000000140e+00 7.553799999999999848e+00 2.487659999999999982e+00 1.241700000000000026e+00 9.245400000000000063e+00 -4.771999999999999853e-02 1.711789999999999923e+00 1.824919999999999831e+01 1.841139999999999999e+00 1.786640000000000006e+00 1.171770000000000067e+01 4.035400000000000098e-01 5.328199999999999603e-01 1.030659999999999954e+01
5.909900000000000153e-01 9.647000000000000020e-02 1.852109999999999923e+00 7.680399999999999450e-01 1.793509999999999938e+00 1.069009999999999927e+01 3.728709999999999969e+00 1.848649999999999904e+00 3.939569999999999794e+00 8.058800000000000407e-01 1.908660000000000023e+00 6.092530000000000001e+00 3.046170000000000044e+00 2.120199999999999863e-01 1.004499999999999993e+01 1.076729999999999965e+00 2.751899999999999902e-01 1.231509999999999927e+01 1.570559999999999956e+00 9.680299999999999461e-01 3.981819999999999915e+00 2.864730000000000221e+00 2.035390000000000033e+00 1.260210000000000008e+01 3.100379999999999914e+00 7.867100000000000204e-01 5.781579999999999941e+00 2.693950000000000067e+00 7.557300000000000129e-01 1.729729999999999990e+00 2.368930000000000202e+00 1.659480000000000066e+00 7.810699999999999754e+00 2.215799999999999992e-01 6.775200000000000111e-01 7.947289999999999743e+00
3.978889999999999816e+00 1.994410000000000016e+00 3.765000000000000124e+00 4.667799999999999727e-01 5.230099999999999749e-01 1.960930000000000062e+00 2.642809999999999881e+00 5.787200000000000122e-01 8.538299999999999557e+00 3.297509999999999941e+00 1.317010000000000014e+00 6.431169999999999831e+00 4.296770000000000422e+00 2.434740000000000126e+00 2.072929999999999851e+01 3.807040000000000202e+00 4.493699999999999917e-01 1.068670000000000009e+01 6.966200000000000170e-01 2.090419999999999945e+00 8.692059999999999675e+00 1.607369999999999965e+00 7.961000000000000298e-01 4.193590000000000373e+00 7.307700000000000307e-01 2.468490000000000073e+00 6.762509999999999799e+00 2.761179999999999968e+00 2.379350000000000076e+00 1.782170000000000032e+00 2.240590000000000082e+00 1.260280000000000067e+00 2.130689999999999884e+01 1.625999999999999890e+00 1.756760000000000099e+00 1.068490000000000073e+01
4.264820000000000277e+00 1.870600000000000041e+00 1.873939999999999939e+00 2.265639999999999876e+00 3.085800000000000209e-01 1.012340000000000018e+01 1.007980000000000098e+00 2.437699999999999867e-01 3.896760000000000002e+00 4.370230000000000281e+00 6.506100000000000216e-01 5.916419999999999568e+00 1.802999999999999881e-01 1.157149999999999901e+00 1.048019999999999996e+01 2.217049999999999965e+00 2.445599999999999996e-01 1.216099999999999959e+01 3.304030000000000022e+00 1.286380000000000079e+00 3.907630000000000159e+00 4.339000000000000412e+00 1.697400000000000020e+00 1.233980000000000032e+01 2.214869999999999894e+00 1.470800000000000107e+00 5.737989999999999924e+00 2.208730000000000082e+00 3.969699999999999895e-01 1.790550000000000086e+00 3.559079999999999799e+00 2.431659999999999933e+00 8.405509999999999593e+00 1.526659999999999906e+00 1.258869999999999933e+00 8.154410000000000380e+00
1.485929999999999973e+00 1.238730000000000109e+00 6.426999999999999602e+00 2.804629999999999956e+00 1.679009999999999891e+00 8.459100000000000508e-01 2.402550000000000185e+00 2.056360000000000188e+00 3.585409999999999986e+00 3.537790000000000212e+00 2.538149999999999906e+00 6.539719999999999978e+00 9.706599999999999673e-01 2.550489999999999924e+00 1.102919999999999945e+01 2.745299999999999963e-01 2.400669999999999860e+00 4.408619999999999983e+00 7.389999999999999347e-02 1.464150000000000063e+00 2.448780000000000179e+00 2.905330000000000190e+00 1.941869999999999985e+00 8.934079999999999799e+00 3.403500000000000192e+00 9.171200000000000463e-01 2.118609999999999971e+01 5.090900000000000425e-01 9.589199999999999946e-01 6.072000000000000314e-02 3.169700000000000184e+00 1.397529999999999939e+00 1.122840000000000060e+01 8.817399999999999682e-01 5.739300000000000512e-01 8.832610000000000738e+00
7.719200000000000506e-01 8.454800000000000093e-01 1.345579999999999998e+01 8.798200000000000465e-01 1.843339999999999979e+00 4.372429999999999595e+00 3.599969999999999892e+00 1.486189999999999900e+00 1.066680000000000028e+01 4.870499999999999829e-01 8.332600000000000007e-01 6.193520000000000358e+00 3.081379999999999786e+00 1.969729999999999981e+00 1.713230000000000031e+00 8.197200000000000042e-01 7.898100000000000120e-01 2.290770000000000195e+00 2.929230000000000000e+00 1.852510000000000101e+00 1.324150000000000027e+01 1.474020000000000108e+00 2.624289999999999790e+00 1.046010000000000062e+01 2.264299999999999924e-01 1.474879999999999969e+00 8.657560000000000144e+00 2.601210000000000022e+00 5.659100000000000241e-01 7.567809999999999704e+00 2.699190000000000200e+00 2.042699999999999960e+00 5.589739999999999931e+00 3.065739999999999910e+00 7.170600000000000307e-01 3.989860000000000184e+00
2.930180000000000007e+00 3.345400000000000040e-01 2.782820000000000071e+00 2.196299999999999919e-01 6.537199999999999678e-01 1.235449999999999937e+00 4.973600000000000243e-01 1.451099999999999890e-01 8.526770000000000849e+00 2.353580000000000005e+00 1.773660000000000014e+00 8.093009999999999593e+00 1.375559999999999894e+00 9.358699999999999797e-01 5.934249999999999581e+00 6.538100000000000023e-01 8.354200000000000514e-01 1.949040000000000106e+01 3.120309999999999917e+00 2.258700000000000152e+00 2.030900000000000105e+01 1.073839999999999906e+00 1.234469999999999956e+00 1.040840000000000032e+01 3.966909999999999936e+00 3.208500000000000241e-01 6.752720000000000056e+00 7.533300000000000551e-01 6.794000000000000039e-02 4.111690000000000289e+00 3.330189999999999984e+00 1.641410000000000036e+00 4.762699999999999712e+00 3.642049999999999788e+00 1.754750000000000032e+00 1.062550000000000061e+01
3.102059999999999818e+00 1.249789999999999957e+00 1.587439999999999962e+01 1.032629999999999937e+00 2.483600000000000030e+00 5.399549999999999628e+00 3.998390000000000111e+00 4.288299999999999890e-01 9.226219999999999644e+00 1.856880000000000086e+00 1.570470000000000033e+00 9.377530000000000143e+00 1.524389999999999912e+00 2.263419999999999987e+00 7.272770000000000401e+00 2.559600000000000208e-01 1.053609999999999935e+00 1.931329999999999991e+00 4.530949999999999811e+00 2.534479999999999844e+00 1.405489999999999995e+01 3.757719999999999949e+00 1.525290000000000035e+00 7.126199999999999868e+00 2.420049999999999812e+00 1.533889999999999976e+00 1.310260000000000069e+01 1.967260000000000009e+00 2.269680000000000142e+00 2.783450000000000202e+00 3.447449999999999903e+00 2.473660000000000192e+00 1.155400000000000027e+01 3.883410000000000029e+00 2.275049999999999795e+00 3.646749999999999936e+00
1.196679999999999966e+00 1.011439999999999895e+00 1.822980000000000045e+00 3.113500000000000156e-01 9.924800000000000288e-01 1.021100000000000030e+01 4.257010000000000183e+00 9.967500000000000249e-01 3.598749999999999893e+00 7.991399999999999615e-01 2.389510000000000023e+00 6.084120000000000417e+00 2.544680000000000053e+00 1.165440000000000031e+00 1.033220000000000027e+01 2.031369999999999898e+00 7.327500000000000124e-01 1.253529999999999944e+01 2.115819999999999812e+00 2.366909999999999847e+00 4.064479999999999649e+00 4.105410000000000004e+00 2.114240000000000119e+00 1.211689999999999934e+01 3.080680000000000085e+00 8.191899999999999737e-01 5.985699999999999577e+00 3.209989999999999899e+00 2.444020000000000081e+00 1.617390000000000105e+00 6.187599999999999767e-01 8.169800000000000395e-01 8.287549999999999528e+00 2.765390000000000015e+00 2.091569999999999929e+00 8.131259999999999266e+00
9.963100000000000289e-01 7.484000000000000374e-02 1.300680000000000014e+01 2.588119999999999976e+00 1.237470000000000070e+00 2.170170000000000154e+00 3.360770000000000035e+00 1.411470000000000002e+00 1.270369999999999955e+01 4.484099999999999753e-01 1.028659999999999908e+00 1.071439999999999948e+01 1.783260000000000067e+00 4.874700000000000144e-01 8.420349999999999113e+00 2.005119999999999791e+00 7.500700000000000145e-01 4.035499999999999865e+00 1.384100000000000052e-01 9.793600000000000083e-01 2.136600000000000055e+00 4.173250000000000348e+00 2.183600000000000207e+00 8.395369999999999777e+00 3.786760000000000126e+00 2.417769999999999975e+00 2.547499999999999765e-01 4.287689999999999557e+00 2.273330000000000073e+00 4.172979999999999912e+00 3.125300000000000189e+00 6.109999999999999876e-01 5.868210000000000370e+00 2.468339999999999979e+00 2.269130000000000091e+00 1.047579999999999956e+01
4.330309999999999881e+00 1.855760000000000076e+00 2.721960000000000157e+00 1.067890000000000006e+00 1.360940000000000039e+00 1.973130000000000095e+01 -1.368600000000000094e-01 7.625600000000000156e-01 1.096899999999999942e+01 2.311949999999999950e+00 2.818300000000000249e-01 1.068169999999999931e+01 1.006539999999999990e+00 4.376499999999999835e-01 1.158090000000000064e+00 8.748299999999999965e-01 1.855490000000000084e+00 9.320259999999999323e+00 9.447699999999999987e-01 2.251030000000000086e+00 7.390010000000000190e+00 3.345079999999999831e+00 7.452999999999999625e-01 2.005000000000000115e-01 4.624000000000000332e-02 5.043199999999999905e-01 5.125949999999999562e+00 3.205880000000000063e+00 1.754410000000000025e+00 8.153990000000000293e+00 2.224670000000000147e+00 -4.440000000000000197e-02 3.179009999999999891e+00 2.603880000000000194e+00 2.066460000000000186e+00 5.886149999999999771e+00
4.141849999999999810e+00 1.034699999999999953e+00 3.931600000000000095e-01 2.632950000000000124e+00 1.549600000000000088e+00 2.541240000000000165e+00 3.338159999999999794e+00 -9.173000000000000598e-02 4.660540000000000127e+00 1.372479999999999922e+00 1.222429999999999906e+00 6.228640000000000398e+00 1.959470000000000045e+00 6.315999999999999392e-02 3.055700000000000083e-01 9.593300000000000161e-01 2.333399999999999919e-01 4.028439999999999799e+00 2.588169999999999860e+00 2.365120000000000111e+00 1.057280000000000086e+01 3.280199999999999783e+00 2.120700000000000085e-01 7.100810000000000066e+00 1.535039999999999960e+00 2.362750000000000128e+00 8.370939999999999159e+00 6.766499999999999737e-01 2.546570000000000000e+00 2.091029999999999944e+00 3.723699999999999788e-01 2.429199999999999804e+00 1.092450000000000010e+01 4.359130000000000393e+00 1.027009999999999978e+00 9.239079999999999515e+00
3.691380000000000106e+00 2.070739999999999803e+00 2.343109999999999804e+00 9.849599999999999467e-01 1.219600000000000017e+00 1.486339999999999995e+00 1.263499999999999901e-01 1.576179999999999914e+00 1.030330000000000013e+01 2.249909999999999854e+00 1.616589999999999971e+00 1.225949999999999918e+01 1.693640000000000034e+00 1.735239999999999894e+00 8.008779999999999788e+00 4.305869999999999642e+00 2.459490000000000176e+00 4.267979999999999663e+00 2.139650000000000052e+00 2.357270000000000199e+00 3.787230000000000096e+00 9.764599999999999946e-01 3.537100000000000244e-01 6.187170000000000059e+00 3.771300000000000097e+00 2.472550000000000026e+00 8.166240000000000165e+00 3.354270000000000085e+00 1.332640000000000047e+00 5.973359999999999559e+00 2.190249999999999808e+00 4.510199999999999765e-01 9.802720000000000766e+00 3.427000000000000185e-02 1.751300000000000079e-01 1.235319999999999929e+01
1.733619999999999939e+00 1.779190000000000049e+00 9.387740000000000862e+00 3.883760000000000101e+00 1.518890000000000073e+00 1.113760000000000083e+01 3.433850000000000069e+00 1.640000000000000069e-01 2.199020000000000152e+01 3.781919999999999948e+00 1.675249999999999906e+00 5.678480000000000416e+00 2.378579999999999917e+00 2.303749999999999964e+00 3.974209999999999798e+00 4.917300000000000004e-01 2.529299999999999882e-01 3.815430000000000099e+00 5.160099999999999687e-01 2.391430000000000167e+00 1.741770000000000040e+00 3.957609999999999850e+00 2.156899999999999928e-01 9.058350000000000790e+00 2.657010000000000094e+00 1.132009999999999961e+00 1.855040000000000022e+00 1.913969999999999949e+00 -1.660000000000000017e-02 1.163780000000000037e+01 1.147929999999999895e+00 1.518890000000000073e+00 2.169829999999999970e+01 1.558540000000000036e+00 1.259000000000000050e-02 6.408319999999999794e+00
1.328650000000000109e+00 -1.393300000000000094e-01 1.282750000000000057e+01 1.319839999999999902e+00 3.851999999999999869e-01 1.265670000000000073e+00 3.900469999999999882e+00 9.805000000000000382e-01 1.271729999999999983e+01 1.790419999999999900e+00 9.997099999999999875e-01 1.105489999999999995e+01 2.443509999999999849e+00 2.135229999999999961e+00 8.708050000000000068e+00 1.226739999999999942e+00 1.506599999999999939e+00 3.514730000000000132e+00 3.804879999999999818e+00 8.831999999999999573e-02 2.422530000000000072e+00 7.062899999999999734e-01 8.877199999999999536e-01 8.738269999999999982e+00 3.141259999999999941e+00 1.649550000000000072e+00 1.865030000000000143e+01 3.320780000000000065e+00 1.404700000000000115e-01 4.402569999999999872e+00 2.314329999999999998e+00 1.760869999999999935e+00 6.074880000000000280e+00 4.346339999999999648e+00 -2.544199999999999795e-01 1.065840000000000032e+01
2.588680000000000092e+00 1.150700000000000056e-01 3.133480000000000043e+00 3.577500000000000124e-01 1.647939999999999960e+00 3.624249999999999972e+00 7.260600000000000387e-01 1.973319999999999963e+00 1.043060000000000009e+01 2.880310000000000148e+00 -7.671000000000000041e-02 1.400839999999999996e+01 3.171409999999999840e+00 1.045460000000000056e+00 9.472200000000000841e+00 2.846589999999999954e+00 1.134319999999999995e+00 1.638390000000000057e+01 7.742900000000000338e-01 1.337099999999999955e-01 1.715899999999999892e+01 4.665409999999999613e+00 3.750399999999999845e-01 1.270529999999999937e+01 2.292139999999999844e+00 1.656999999999999862e-01 1.207709999999999972e+01 9.316400000000000237e-01 8.993900000000000228e-01 1.060529999999999973e+00 3.067820000000000213e+00 1.804259999999999975e+00 8.624600000000000044e-01 5.140599999999999614e-01 7.647000000000000464e-01 1.503570000000000029e+01
3.496669999999999945e+00 2.248909999999999965e+00 4.860700000000000021e-01 1.609469999999999956e+00 3.184799999999999853e-01 6.590770000000000017e+00 2.035480000000000178e+00 8.308999999999999719e-01 1.014930000000000021e+01 2.663900000000000157e-01 2.724200000000000177e+00 9.073100000000000165e+00 2.871589999999999865e+00 2.339560000000000084e+00 4.834719999999999906e+00 4.673700000000000077e-01 1.227940000000000031e+00 4.768200000000000216e+00 8.388700000000000045e-01 2.085599999999999954e-01 1.233309999999999995e+01 4.269449999999999967e+00 1.721470000000000056e+00 1.122809999999999953e+01 4.449840000000000018e+00 2.068449999999999900e+00 2.541739999999999888e+00 1.288030000000000008e+00 6.942099999999999937e-01 3.792800000000000060e-01 4.654690000000000438e+00 1.267660000000000009e+00 1.521100000000000030e+01 3.703570000000000029e+00 1.537460000000000049e+00 6.781659999999999577e+00
1.354309999999999903e+00 6.686199999999999921e-01 1.625490000000000101e+00 2.273169999999999913e+00 1.872859999999999969e+00 3.835389999999999855e+00 3.797530000000000072e+00 4.185900000000000176e-01 2.051810000000000134e+00 1.069409999999999972e+00 1.580880000000000063e+00 8.447329999999999117e+00 1.793409999999999949e+00 7.527199999999999447e-01 6.242479999999999585e+00 3.251279999999999948e+00 -9.507000000000000173e-02 2.171790000000000020e+01 4.619559999999999889e+00 1.256820000000000048e+00 1.127299999999999969e+01 3.398829999999999796e+00 1.338700000000000001e+00 9.015750000000000597e+00 5.587999999999999912e-02 1.551709999999999923e+00 1.966900000000000037e-01 4.643040000000000056e+00 5.498699999999999699e-01 4.395419999999999661e+00 4.022669999999999746e+00 2.284190000000000165e+00 6.837419999999999831e+00 2.237579999999999902e+00 6.135999999999999788e-02 1.071809999999999974e+01
3.691819999999999879e+00 1.462429999999999897e+00 1.278749999999999964e+01 6.258000000000000229e-01 1.522459999999999924e+00 3.737599999999999811e-01 4.966400000000000259e-01 8.891700000000000159e-01 1.399890000000000079e+01 1.865990000000000038e+00 -1.088400000000000062e-01 1.266660000000000075e+01 1.478930000000000078e+00 1.315330000000000110e+00 7.063240000000000407e+00 1.603949999999999987e+00 -1.302000000000000032e-02 4.859829999999999650e+00 1.694269999999999943e+00 1.384449999999999958e+00 2.755879999999999885e+00 2.135100000000000053e-01 2.569400000000000017e-01 1.081479999999999997e+01 2.653779999999999806e+00 3.692199999999999926e-01 5.189099999999999824e-01 3.729119999999999990e+00 -4.887999999999999984e-02 2.697979999999999823e+00 3.895649999999999835e+00 1.327890000000000015e+00 4.671059999999999768e+00 2.669299999999999784e+00 2.265239999999999920e+00 9.146100000000000563e+00
4.851860000000000284e+00 1.748280000000000056e+00 7.873669999999999725e+00 2.427020000000000177e+00 2.261779999999999902e+00 7.978069999999999773e+00 1.233489999999999975e+00 3.108600000000000252e-01 6.155719999999999636e+00 2.872590000000000199e+00 1.875300000000000022e-01 1.584360000000000035e+01 2.036199999999999954e-01 4.558999999999999858e-02 3.992830000000000101e+00 1.326330000000000009e+00 2.280829999999999913e+00 1.183130000000000015e+00 9.425099999999999589e-01 1.079120000000000079e+00 1.023649999999999949e+01 2.779170000000000140e+00 1.626349999999999962e+00 3.366659999999999986e+00 3.643759999999999888e+00 3.826100000000000056e-01 5.710169999999999746e+00 2.136550000000000171e+00 1.753249999999999975e+00 1.237369999999999948e+01 3.867189999999999905e+00 1.644500000000000073e+00 1.015819999999999945e+00 3.390169999999999906e+00 4.882199999999999873e-01 9.812329999999999330e+00
3.588579999999999881e+00 2.109059999999999935e+00 2.352079999999999949e+00 1.280070000000000041e+00 1.257130000000000081e+00 1.582529999999999992e+00 6.464999999999999913e-02 1.570359999999999978e+00 1.023770000000000024e+01 2.250440000000000218e+00 1.626279999999999948e+00 1.211919999999999931e+01 1.740680000000000005e+00 1.635899999999999910e+00 8.099009999999999820e+00 1.545999999999999978e-02 4.934999999999999803e-02 4.289010000000000211e+00 2.017419999999999991e+00 2.415150000000000130e+00 3.731990000000000141e+00 9.311099999999999932e-01 3.596799999999999997e-01 6.065839999999999677e+00 3.752380000000000049e+00 6.783000000000000140e-02 8.192149999999999821e+00 3.273610000000000131e+00 1.252469999999999972e+00 6.007880000000000109e+00 2.178049999999999820e+00 4.717000000000000082e-01 9.961090000000000444e+00 -1.025000000000000043e-02 9.526999999999999358e-02 1.230059999999999931e+01
3.694189999999999863e+00 1.364330000000000043e+00 2.642869999999999830e+00 3.180399999999999894e-01 1.140660000000000007e+00 1.278260000000000041e+01 1.535639999999999894e+00 1.564829999999999943e+00 1.043219999999999992e+01 4.119010000000000282e+00 1.585809999999999942e+00 4.937680000000000291e+00 1.813320000000000043e+00 1.610640000000000072e+00 8.099339999999999762e+00 1.583269999999999955e+00 5.083699999999999886e-01 3.211650000000000116e+00 -1.061799999999999966e-01 1.073530000000000095e+00 1.531049999999999933e+01 2.445549999999999891e+00 2.245369999999999866e+00 1.253669999999999973e+01 -4.941000000000000253e-02 5.255499999999999616e-01 7.049800000000000288e+00 2.091870000000000118e+00 2.581200000000000161e-01 5.956330000000000346e+00 2.748790000000000067e+00 5.240000000000000213e-02 5.284200000000000008e-01 3.894320000000000004e+00 3.952899999999999747e-01 9.040919999999999845e+00
4.387109999999999843e+00 2.638339999999999907e+00 1.303430000000000000e+01 2.238910000000000178e+00 2.494310000000000027e+00 9.385500000000000398e+00 2.333089999999999886e+00 8.818799999999999972e-01 1.346879999999999988e+01 2.321000000000000174e+00 4.000500000000000167e-01 7.338160000000000238e+00 1.918700000000000128e-01 1.268550000000000066e+00 8.052390000000000825e+00 2.460869999999999891e+00 2.119740000000000180e+00 1.148639999999999972e+01 2.988910000000000178e+00 1.540399999999999991e+00 1.549819999999999975e+00 3.251660000000000217e+00 3.446799999999999864e-01 3.505959999999999965e+00 3.776800000000000157e-01 1.363639999999999963e+00 1.037079999999999913e+01 2.023260000000000058e+00 2.992000000000000215e-01 1.594200000000000017e+01 8.245400000000000507e-01 1.817479999999999984e+00 2.106930000000000192e+00 4.436720000000000219e+00 1.287390000000000034e+00 1.518590000000000018e+01
