-3.795663031000000132e+01
-3.903252693999999678e+01
-3.885237367999999947e+01
-3.650958590999999842e+01
-3.845918316000000203e+01
-3.873587350999999757e+01
-3.780712966000000108e+01
-3.537875831000000204e+01
-3.942849455000000347e+01
-3.946993099000000171e+01
-3.994094127000000327e+01
-3.831990404999999811e+01
-4.017590642999999773e+01
-3.792872873000000311e+01
-3.654107516999999916e+01
-4.058787889999999976e+01
-3.858246220000000193e+01
-3.808257044999999863e+01
-3.856679214999999772e+01
-3.844965519000000143e+01
-3.909738355999999726e+01
-3.762656776000000036e+01
-3.929030535999999785e+01
-3.766049055999999950e+01
-3.830354549999999847e+01
-3.702759889000000015e+01
-3.754725274999999840e+01
-3.975125217000000077e+01
-4.035641331000000065e+01
-3.984412092000000172e+01
