3.275469999999999882e+00 5.865409999999999791e+00 4.601799999999999891e+00 3.213410000000000100e+00 1.944849999999999968e+00 3.797130000000000116e+00 4.448649999999999771e+00 2.777010000000000201e+00 1.629610000000000003e+00 5.071609999999999729e+00 9.029599999999999849e-01 3.109999999999999876e+00 1.499379999999999935e+00 1.987099999999999977e-01 2.973110000000000142e+00 2.539999999999999897e-02 9.234499999999999931e-01 5.959999999999999742e-01 3.155450000000000088e+00 4.277969999999999828e+00 2.569809999999999928e+00 8.223500000000000254e-01 1.799739999999999895e+00 4.822320000000000384e+00 4.217899999999999983e-01 3.796110000000000095e+00 2.026699999999999890e-01 1.779130000000000100e+00 5.362840000000000273e+00 6.180400000000000338e-01 3.991420000000000190e+00 5.321449999999999569e+00 6.022600000000000176e-01 1.887669999999999959e+00 3.628210000000000157e+00 4.382340000000000124e+00 5.562649999999999650e+00 4.734460000000000335e+00 2.179510000000000058e+00 5.812509999999999621e+00 5.573500000000000121e+00 5.023119999999999585e+00 1.339099999999999957e+00 3.071330000000000116e+00 2.197379999999999889e+00 4.976099999999999746e+00 3.561380000000000212e+00 3.857089999999999907e+00
3.265449999999999964e+00 3.036820000000000075e+00 2.928510000000000169e+00 5.716190000000000104e+00 3.254080000000000084e+00 2.744000000000000217e+00 4.226420000000000066e+00 1.041560000000000041e+00 7.395999999999999797e-02 1.601099999999999968e+00 1.366800000000000015e+00 1.875799999999999912e+00 1.931499999999999884e-01 5.450470000000000148e+00 3.485900000000000110e-01 2.475929999999999964e+00 2.248999999999999957e-02 1.230300000000000005e-01 5.804800000000000182e+00 5.877180000000000071e+00 3.148930000000000007e+00 2.958600000000000119e+00 2.987309999999999910e+00 1.720399999999999985e-01 1.444369999999999932e+00 1.475019999999999998e+00 4.262319999999999887e+00 1.396230000000000082e+00 4.458149999999999835e+00 4.212579999999999991e+00 2.575200000000000267e-01 2.766360000000000152e+00 3.212400000000000255e-01 4.931070000000000064e+00 1.950870000000000104e+00 4.218519999999999825e+00 4.376759999999999984e+00 4.291439999999999699e+00 4.521349999999999980e+00 3.451690000000000147e+00 1.296100000000000030e-01 3.301250000000000018e+00 4.398100000000000342e+00 4.872230000000000061e+00 1.442509999999999959e+00 1.690720000000000001e+00 4.338580000000000325e+00 1.453640000000000043e+00
2.422400000000000109e-01 3.190900000000000070e+00 5.716190000000000104e+00 1.785870000000000068e+00 9.984899999999999887e-01 1.348659999999999970e+00 4.076529999999999987e+00 4.037250000000000227e+00 4.638419999999999987e+00 4.623219999999999885e+00 1.439990000000000103e+00 4.348950000000000315e+00 1.531169999999999920e+00 4.865999999999999659e+00 3.884640000000000093e+00 3.046100000000000030e+00 3.383900000000000241e-01 2.534499999999999975e+00 2.543769999999999865e+00 2.964640000000000164e+00 5.790379999999999860e+00 4.266409999999999592e+00 1.975680000000000103e+00 1.215060000000000029e+00 5.387100000000000222e+00 5.879080000000000084e+00 9.879999999999999893e-02 2.546440000000000037e+00 2.778810000000000002e+00 3.352829999999999977e+00 1.328480000000000105e+00 1.078489999999999949e+00 4.545600000000000307e+00 2.874999999999999778e-01 2.794130000000000003e+00 2.749540000000000095e+00 2.901850000000000041e+00 5.466409999999999769e+00 5.760040000000000049e+00 5.514780000000000015e+00 5.737449999999999939e+00 3.352180000000000160e+00 4.821880000000000166e+00 4.158079999999999998e+00 1.444939999999999891e+00 1.315399999999999903e+00 4.687879999999999825e+00 1.514100000000000001e+00
3.308320000000000149e+00 5.669039999999999857e+00 4.530439999999999579e+00 3.229900000000000215e+00 1.825360000000000094e+00 3.860339999999999883e+00 4.311149999999999594e+00 2.696810000000000151e+00 1.695850000000000080e+00 5.029930000000000234e+00 1.089280000000000026e+00 3.081399999999999917e+00 1.487190000000000012e+00 1.211699999999999999e-01 2.896910000000000096e+00 6.018360000000000376e+00 8.671200000000000019e-01 6.773700000000000276e-01 3.040799999999999947e+00 4.420010000000000439e+00 2.506149999999999878e+00 7.254800000000000137e-01 1.897010000000000085e+00 4.864499999999999602e+00 3.210299999999999820e-01 3.778610000000000024e+00 1.056799999999999962e-01 1.829120000000000079e+00 5.296009999999999884e+00 5.507499999999999618e-01 3.966769999999999907e+00 5.194009999999999572e+00 6.761200000000000543e-01 1.795539999999999914e+00 3.613230000000000164e+00 4.407289999999999708e+00 5.750270000000000437e+00 4.845469999999999722e+00 1.998089999999999922e+00 5.876229999999999620e+00 5.552760000000000140e+00 5.135959999999999859e+00 1.282820000000000071e+00 3.008770000000000167e+00 2.053990000000000204e+00 5.148880000000000123e+00 3.574190000000000200e+00 3.888049999999999784e+00
1.857529999999999903e+00 1.743209999999999926e+00 1.459130000000000038e+00 4.482879999999999754e+00 1.533250000000000002e+00 1.555129999999999901e+00 2.066399999999999793e+00 4.290149999999999686e+00 1.912050000000000027e+00 1.734070000000000000e+00 5.605430000000000135e+00 5.947860000000000369e+00 4.397479999999999833e+00 4.277379999999999960e+00 1.548629999999999951e+00 5.998990000000000045e+00 5.474409999999999776e+00 4.181699999999999862e-01 6.079819999999999780e+00 2.730679999999999996e+00 2.807700000000000196e-01 1.479440000000000088e+00 1.488639999999999963e+00 4.002650000000000041e+00 5.062839999999999563e+00 1.610239999999999894e+00 4.333090000000000330e+00 4.982440000000000424e+00 4.308810000000000251e+00 4.547699999999999854e+00 3.449180000000000135e+00 5.662899999999999601e+00 3.243689999999999962e+00 1.196709999999999940e+00 4.057109999999999772e+00 4.189809999999999590e+00 3.488220000000000098e+00 2.995999999999999996e+00 3.475800000000000001e+00 5.969660000000000188e+00 3.088159999999999794e+00 2.565179999999999794e+00 6.075750000000000206e+00 5.590580000000000105e+00 2.843350000000000044e+00 2.846900000000000208e+00 3.398719999999999963e+00 5.850179999999999936e+00
