5.161599999999999522e-01 7.679099999999999815e-01 4.324119999999999742e+00 1.985589999999999966e+00 1.013290000000000024e+00 2.660419999999999785e+00 3.056369999999999809e+00 3.973279999999999923e+00 6.401139999999999830e+00 5.377620000000000289e+00 2.579009999999999803e+00 2.016600000000000059e-01 4.770909999999999762e+00 2.178710000000000147e+00 6.530310000000000059e+00 3.811920000000000197e+00 5.121400000000000396e-01 8.598140000000000782e+00 5.791820000000000412e+00 3.824800000000000200e+00 2.079000000000000181e+00 3.319010000000000016e+00 8.302399999999999780e-01 3.958740000000000148e+00 4.429160000000000430e+00 3.328840000000000021e+00 3.759570000000000078e+00 1.576230000000000020e+00 9.198000000000000620e-02 1.626599999999999990e-01 2.727500000000000036e+00 2.476919999999999789e+00 7.077200000000000157e-01 4.389809999999999768e+00 1.312810000000000032e+00 2.108499999999999819e+00 3.061280000000000001e+00 4.064119999999999955e+00 2.216930000000000067e+00 2.318909999999999805e+00 1.636619999999999964e+00 7.195579999999999643e+00 5.915000000000000036e+00 4.321780000000000399e+00 5.855830000000000091e+00 1.805560000000000054e+00 2.707800000000000207e+00 4.280070000000000263e+00
4.904040000000000177e+00 8.786399999999999766e-01 5.995700000000000252e+00 4.982420000000000293e+00 4.680550000000000210e+00 2.361920000000000019e+00 3.815230000000000121e+00 4.548219999999999708e+00 4.190809999999999924e+00 6.226989999999999803e+00 1.712720000000000020e+00 1.921270000000000033e+00 1.012089999999999934e+00 1.015800000000000036e-01 8.015269999999999229e+00 5.244690000000000296e+00 2.442499999999999949e-01 1.986999999999999877e-01 5.139529999999999710e+00 2.323980000000000157e+00 4.158839999999999648e+00 3.992579999999999796e+00 1.113410000000000011e+00 2.498229999999999951e+00 7.358060000000000045e+00 3.156369999999999898e+00 6.568509999999999849e+00 1.942539999999999933e+00 1.718380000000000019e+00 4.145789999999999864e+00 6.850909999999999833e+00 4.249419999999999753e+00 4.241349999999999731e+00 1.698769999999999891e+00 1.511069999999999913e+00 8.946999999999999398e-02 2.133179999999999854e+00 2.806000000000000161e-02 6.122539999999999871e+00 2.393079999999999874e+00 2.984290000000000109e+00 2.345950000000000202e+00 3.904189999999999827e+00 2.462229999999999919e+00 4.637499999999999956e-01 6.323789999999999800e+00 3.724709999999999965e+00 1.734199999999999908e-01
5.130080000000000418e+00 3.617020000000000124e+00 4.980459999999999887e+00 3.687949999999999839e+00 2.093710000000000182e+00 7.004480000000000040e+00 6.454379999999999562e+00 3.939480000000000093e+00 8.605510000000000659e+00 4.568640000000000256e+00 1.739770000000000039e+00 6.539800000000000058e-01 3.730939999999999923e+00 3.705589999999999939e+00 3.377800000000000247e-01 2.287269999999999914e+00 2.803059999999999885e+00 4.785160000000000302e+00 5.093410000000000437e+00 3.842159999999999798e+00 6.898880000000000123e+00 2.052589999999999915e+00 8.061099999999999932e-01 3.192359999999999864e+00 5.738010000000000055e+00 8.977899999999999769e-01 4.907460000000000377e+00 3.412850000000000161e+00 2.367210000000000036e+00 2.489599999999999813e+00 3.692889999999999784e+00 1.111490000000000089e+00 5.072600000000000442e+00 7.874480000000000146e+00 4.318319999999999936e+00 6.676590000000000025e+00 6.098499999999999588e+00 3.505139999999999922e+00 2.702550000000000008e+00 1.236590000000000078e+00 1.790370000000000017e+00 7.225629999999999775e+00 5.147210000000000285e+00 5.253799999999999581e-01 2.762989999999999835e+00 1.690970000000000084e+00 1.608929999999999971e+00 9.168699999999999628e-01
5.135749999999999815e+00 3.715660000000000185e+00 6.912729999999999819e+00 7.774219999999999686e+00 3.808310000000000084e+00 3.754169999999999785e+00 6.764199999999999768e+00 2.937339999999999840e+00 6.772599999999999731e-01 4.016189999999999927e+00 1.339979999999999949e+00 7.118870000000000253e+00 4.360929999999999751e+00 2.049279999999999990e+00 4.888289999999999580e+00 3.633259999999999934e+00 4.417049999999999699e+00 9.054959999999999454e+00 6.230940000000000367e+00 4.691250000000000142e+00 5.223959999999999937e+00 7.308250000000000135e+00 3.566739999999999799e+00 7.619040000000000035e+00 5.156279999999999752e+00 3.654780000000000140e+00 9.994899999999999896e-01 9.066100000000000270e-01 1.499030000000000085e+00 3.027680000000000149e+00 5.167570000000000441e+00 3.647730000000000139e+00 3.070279999999999898e+00 1.700290000000000079e+00 2.231580000000000119e+00 5.704299999999999926e+00 1.123990000000000045e+00 1.517940000000000067e+00 7.849739999999999718e+00 6.545199999999999907e-01 1.069999999999999979e-01 5.638110000000000177e+00 3.408490000000000020e+00 2.317860000000000031e+00 2.731640000000000068e+00 3.359529999999999905e+00 1.891929999999999890e+00 5.016399999999999748e-01
8.365599999999999703e-01 7.830300000000000038e-01 4.079299999999999926e+00 4.282619999999999649e+00 1.509290000000000020e+00 2.113449999999999829e+00 6.008390000000000342e+00 3.521860000000000213e+00 6.631000000000000227e+00 5.044579999999999842e+00 2.418550000000000200e+00 2.001300000000000023e-01 1.858740000000000059e+00 1.214720000000000022e+00 6.428650000000000198e+00 3.029929999999999790e+00 9.917399999999999549e-01 8.361840000000000828e+00 3.080610000000000070e+00 3.968850000000000211e+00 2.092940000000000023e+00 3.315170000000000172e+00 4.824700000000000100e-01 4.301800000000000068e+00 4.356010000000000382e+00 2.713620000000000143e+00 4.103550000000000253e+00 1.463680000000000092e+00 3.583500000000000019e-01 5.689999999999999919e-02 2.056329999999999991e+00 3.198430000000000106e+00 8.440239999999999299e+00 1.910050000000000026e+00 1.923410000000000064e+00 2.471690000000000165e+00 5.527750000000000163e+00 3.565160000000000107e+00 1.857779999999999987e+00 4.649210000000000065e+00 1.386500000000000066e+00 6.509369999999999656e+00 3.639299999999999979e+00 3.743430000000000035e+00 6.253140000000000143e+00 2.147790000000000088e+00 3.157309999999999839e+00 4.060629999999999740e+00
3.461409999999999876e+00 7.116099999999999648e-01 6.438069999999999737e+00 3.732250000000000068e+00 3.883579999999999810e+00 4.864899999999999780e-01 1.400409999999999933e+00 2.359230000000000160e+00 8.249890000000000612e+00 2.324889999999999901e+00 3.240200000000000191e+00 6.137139999999999596e+00 4.160590000000000011e+00 1.628120000000000012e+00 1.234699999999999964e-01 1.002159999999999940e+00 7.641000000000000014e-01 6.341490000000000293e+00 3.125570000000000181e+00 4.231200000000000294e+00 4.365599999999999703e+00 4.604169999999999874e+00 2.176169999999999938e+00 4.381879999999999775e+00 4.651180000000000092e+00 2.300699999999999967e-01 7.920950000000000379e+00 3.304050000000000153e+00 2.471719999999999917e+00 2.387010000000000076e+00 1.889180000000000081e+00 6.627600000000000158e-01 2.091479999999999784e+00 4.779370000000000118e+00 2.839480000000000004e+00 6.826679999999999637e+00 5.687289999999999957e+00 3.091489999999999849e+00 1.976969999999999894e+00 4.651749999999999829e+00 4.521499999999999964e-01 2.470209999999999795e+00 5.540610000000000035e+00 4.431000000000000050e+00 4.165980000000000238e+00 1.614060000000000050e+00 2.051480000000000192e+00 4.167130000000000223e+00
1.789740000000000109e+00 1.428260000000000085e+00 4.173659999999999926e+00 1.782839999999999980e+00 2.833450000000000024e+00 2.082460000000000200e+00 4.191880000000000273e+00 2.391210000000000058e+00 6.748330000000000162e+00 2.938509999999999955e+00 2.008090000000000153e+00 1.359599999999999975e-01 2.496830000000000105e+00 4.736480000000000246e+00 6.441629999999999967e+00 3.888450000000000184e+00 4.287630000000000052e+00 8.648479999999999279e+00 3.446790000000000020e+00 1.240099999999999952e-01 2.267939999999999845e+00 4.505770000000000053e+00 1.659499999999999975e+00 4.580499999999999794e+00 6.273600000000000065e+00 3.653509999999999813e+00 4.382279999999999731e+00 4.362449999999999939e+00 3.067199999999999926e-01 1.059699999999999948e-01 5.583520000000000039e+00 2.426390000000000047e+00 4.474699999999999789e-01 4.414600000000000080e+00 2.888840000000000074e+00 2.355999999999999872e+00 1.135070000000000023e+00 5.193100000000000493e-01 2.079889999999999795e+00 2.954219999999999846e+00 3.522100000000000231e-01 6.496340000000000003e+00 1.405769999999999964e+00 2.276940000000000186e+00 6.143889999999999851e+00 3.531969999999999832e+00 3.629700000000000149e+00 3.781730000000000036e+00
