-5.257532839000000280e+01
-4.877392372999999992e+01
-5.205133760999999737e+01
-4.776264880000000090e+01
-5.264358253000000332e+01
-5.281453813000000252e+01
-5.233613059000000334e+01
