-4.774197317000000140e+01
-5.363920902000000268e+01
-4.766264859000000342e+01
-4.614708346999999833e+01
-4.473213626999999804e+01
-5.238213592999999690e+01
-5.232252745000000260e+01
-4.882134418999999781e+01
-4.828520421999999712e+01
-4.691438216000000239e+01
-4.428907385000000119e+01
-4.645738826000000188e+01
-4.550439864999999884e+01
-4.666465318000000195e+01
-4.665138182999999827e+01
-4.466162403999999952e+01
-4.561862425000000343e+01
-4.627876393999999749e+01
-5.255183103000000244e+01
-4.334083812000000080e+01
-5.371496924000000206e+01
-4.986237344999999976e+01
-4.664954408999999913e+01
-5.162955428000000069e+01
-5.293003673999999847e+01
-4.392800540000000353e+01
-4.970725816000000208e+01
-4.374318229000000002e+01
-4.702369502999999895e+01
-4.492156555999999767e+01
-4.534998946999999703e+01
-4.479116917000000342e+01
-5.036367400999999688e+01
-4.630462151999999776e+01
-4.640544889000000239e+01
-4.499927996000000263e+01
-4.467239039999999761e+01
-4.507626675000000205e+01
-5.227850999999999715e+01
-4.946359240000000312e+01
-5.123523869999999647e+01
-4.434613252999999844e+01
-4.597086662000000246e+01
-4.429588880000000017e+01
-4.685756054000000148e+01
-4.543735955999999732e+01
-4.709160117999999784e+01
-4.279659820999999909e+01
-4.608874773000000147e+01
-4.395314739999999887e+01
-4.559123575000000272e+01
-4.654493289999999917e+01
-5.290686672999999729e+01
-5.042756214999999997e+01
-5.296114468999999758e+01
-4.393198440999999832e+01
-5.020512360000000029e+01
-4.516702331999999842e+01
-4.883263130000000274e+01
-4.774396349999999956e+01
-4.723829125999999690e+01
-4.699429718999999750e+01
-4.822168517000000065e+01
-4.351959336000000178e+01
-4.484769471999999979e+01
-4.957814026999999868e+01
-5.129781106000000079e+01
-4.376738800999999768e+01
-4.724935948000000252e+01
-4.362163913999999920e+01
-4.397351701000000190e+01
-4.718681606999999900e+01
-4.659789391999999708e+01
-5.103490915999999800e+01
-4.378912514999999672e+01
