1.475019000000000080e+00 -9.868660000000000210e-01 2.868919999999999804e-01 1.740518999999999927e+00 -3.825890000000000124e-01 1.852764000000000078e+00 3.188329999999999775e-01 -3.911430000000000184e-01 1.151319999999999982e-01 -1.024272000000000071e+00 -2.865550000000000042e-01 2.213769999999999905e-01 -9.874579999999999469e-01 5.156110000000000415e-01 1.996979999999999866e-01 5.003109999999999502e-01 -1.521150000000000002e-01 -1.737080000000000013e-01 -3.888710000000000222e-01 -9.056699999999999751e-01 -1.342919999999999947e-01 4.224390000000000089e-01 2.347180000000000100e-01 -1.049541999999999975e+00 -1.275061000000000000e+00 -3.610099999999999976e-01 1.584332000000000074e+00 7.576619999999999466e-01 9.562700000000000367e-02 -1.053311000000000108e+00 -3.002399999999999861e-02 -4.827800000000000147e-02 -3.667933000000000110e+00 1.175299999999999956e-02 5.763230000000000297e-01 1.252863000000000060e+00 -1.355685000000000029e+00 7.865919999999999579e-01 -2.242560000000000109e+00 5.509399999999999714e-02 8.967899999999999483e-02 4.401079999999999992e-01 5.798010000000000108e-01 7.343549999999999800e-01 -6.061520000000000241e-01 -8.000589999999999646e-01 4.813220000000000276e-01 2.974336000000000091e+00
1.598294000000000104e+00 4.454969999999999763e-01 -5.257300000000000306e-01 -3.276572999999999958e+00 -6.394689999999999541e-01 -1.511508999999999991e+00 2.686735999999999791e+00 -5.948870000000000546e-01 1.948142999999999958e+00 4.164459999999999829e-01 -1.586745999999999990e+00 -1.270067999999999975e+00 -1.083404999999999951e+00 -3.132670000000000177e-01 -2.021689999999999987e+00 -1.458949000000000051e+00 -2.405909999999999993e-01 3.499499999999999833e-01 1.260043999999999942e+00 -1.252035999999999927e+00 1.564359999999999973e+00 -6.756010000000000071e-01 -2.362839999999999940e-01 1.287566999999999906e+00 -1.897700000000000081e-02 2.883010000000000073e+00 3.888880000000000114e-01 -1.713360999999999912e+00 2.308321999999999985e+00 1.028613999999999917e+00 7.929640000000000022e-01 -5.130280000000000395e-01 2.356371000000000215e+00 -9.219800000000000217e-02 9.420579999999999510e-01 7.597310000000000452e-01 2.568681000000000214e+00 -1.601936000000000027e+00 -4.486006999999999856e+00 3.621249999999999747e-01 -2.152610000000000079e-01 -3.931189999999999962e-01 -3.682582000000000022e+00 -5.083522999999999570e+00 4.220640999999999643e+00 2.316355000000000164e+00 5.698140000000000427e+00 -3.696140999999999899e+00
-1.827798999999999952e+00 5.614329999999999599e-01 -1.812139999999999862e-01 3.793960000000000110e-01 -1.200909000000000004e+00 -2.217459999999999987e-01 3.022460000000000147e-01 1.336890000000000023e-01 2.088440000000000019e-01 -3.602870000000000239e-01 6.412839999999999652e-01 1.136930000000000024e-01 3.289860000000000007e-01 9.020070000000000032e-01 4.981399999999999717e-02 1.071228999999999987e+00 1.093739000000000017e+00 -1.917280000000000095e-01 5.620950999999999809e+00 3.821607999999999894e+00 -3.863538999999999835e+00 -3.321124000000000187e+00 -4.453574999999999839e+00 -7.669270000000000254e-01 4.635400000000000076e-01 -2.061119999999999897e-01 -3.119750000000000023e-01 -2.048093000000000163e+00 -5.238089999999999691e-01 4.003110000000000390e+00 -4.487269999999999870e-01 -1.621620000000000006e-01 1.526189000000000018e+00 -1.832800000000000054e-02 8.270020000000000149e-01 -3.847579999999999889e-01 1.655084000000000000e+00 1.458061999999999969e+00 -1.483624000000000054e+00 -1.967715000000000103e+00 7.536700000000000343e-02 3.351999999999999945e-03 3.239270000000000205e-01 -1.977389999999999981e-01 -6.303539999999999699e-01 -1.532870000000000066e-01 -2.769884999999999931e+00 2.130863000000000174e+00
8.339269999999999738e-01 -1.011045999999999889e+00 3.165589999999999793e-01 -1.424220999999999959e+00 2.049525000000000041e+00 -8.531440000000000135e-01 9.838379999999999903e-01 -9.387630000000000141e-01 1.001300999999999997e+00 3.661749999999999727e-01 -8.598400000000000487e-01 2.716729999999999978e-01 -1.608373999999999970e+00 7.423650000000000526e-01 -1.609121000000000024e+00 3.164150000000000018e-01 3.969500000000000112e-02 -1.688310000000000088e-01 3.690620000000000012e-01 -9.046920000000000517e-01 -2.503940000000000055e-01 1.280399999999999872e-01 1.131385000000000085e+00 -7.601080000000000059e-01 4.968679999999999763e-01 2.085714999999999986e+00 -1.767155000000000031e+00 -3.896850000000000036e-01 -1.980099999999999916e-02 9.729320000000000190e-01 -5.367009999999999836e-01 1.336680000000000090e-01 9.723279999999999701e-01 2.069860000000000033e-01 3.013859999999999872e-01 -1.019599999999999951e-01 -8.579010000000000247e-01 -1.791705000000000103e+00 3.207299999999999734e-02 -6.078759999999999719e-01 -4.957929999999999837e-01 1.126298000000000021e+00 1.677894999999999914e+00 -6.006730000000000125e-01 6.156470000000000553e-01 4.555200000000000221e-02 1.385760000000000047e-01 2.019019999999999981e-01
2.972199999999999842e-01 -8.358799999999999564e-02 -1.340659999999999963e+00 -3.850899999999999879e-01 6.821779999999999511e-01 -1.645909999999999873e-01 1.540775000000000006e+00 1.047749999999999959e+00 -5.107829999999999870e-01 2.877838999999999814e+00 -7.124006999999999756e+00 5.114957000000000420e+00 -3.348899999999999794e-02 1.303744000000000014e+00 6.218470000000000386e-01 -1.607685000000000031e+00 -8.895500000000000629e-02 2.775599999999999734e-01 1.324478999999999962e+00 -4.803930000000000144e-01 7.676849999999999508e-01 -4.900979999999999781e-01 8.311049999999999827e-01 7.322990000000000332e-01 -6.843939999999999468e-01 2.607160000000000033e-01 -1.111790000000000000e-01 -5.400420000000000220e-01 1.194566999999999934e+00 -5.370200000000000529e-01 9.767310000000000159e-01 -1.941902999999999935e+00 -1.374192000000000080e+00 -4.514859999999999984e-01 -2.541200000000000056e-02 3.851100000000000079e-01 -2.983004999999999907e+00 6.308766000000000318e+00 -4.854820000000000135e+00 -6.810299999999999687e-02 -1.699789999999999912e-01 1.345363000000000087e+00 4.504600000000000271e-01 -1.413111000000000006e+00 -8.679200000000000248e-01 -2.241090000000000027e-01 -3.014769999999999950e-01 5.163429999999999964e-01
2.470070000000000210e+00 -3.272656000000000009e+00 -1.474771999999999972e+00 1.034550999999999998e+00 -1.479119999999999990e+00 -7.685610000000000497e-01 -3.523858000000000157e+00 3.752596000000000043e+00 4.529519999999999769e+00 1.046610999999999958e+00 1.162501000000000007e+00 1.346856000000000053e+00 -2.661773999999999862e+00 -3.756419999999999870e+00 -1.403305000000000025e+00 4.252100000000000324e-02 1.346300999999999970e+00 -1.118876999999999899e+00 -3.393939999999999735e-01 3.466852999999999962e+00 5.360599999999999810e-01 2.814222000000000001e+00 -4.584084999999999965e+00 -2.111777000000000015e+00 -1.146650000000000030e-01 2.660270000000000135e-01 -3.244090000000000029e-01 1.277613000000000110e+00 -2.088112000000000190e+00 1.626228999999999925e+00 2.402890000000000026e-01 -5.197880000000000278e-01 -2.442519999999999969e-01 -1.252043999999999935e+00 6.878530000000000477e-01 -3.817570000000000130e-01 -2.054209999999999925e-01 1.925823999999999980e+00 -9.986169999999999769e-01 -1.036057999999999923e+00 1.436708000000000096e+00 -4.761429999999999829e-01 -1.200917000000000012e+00 1.267986999999999975e+00 1.460215999999999958e+00 1.408255000000000035e+00 3.875299999999999856e-01 -1.964090000000000003e-01
-1.052958999999999978e+00 -1.559387999999999996e+00 1.141475000000000017e+00 -1.423442000000000096e+00 6.207540000000000280e-01 -2.845699999999999966e-02 1.773458999999999897e+00 3.131327000000000194e+00 -9.578830000000000400e-01 2.225117000000000012e+00 9.933459999999999512e-01 -1.611804000000000014e+00 3.474032999999999927e+00 -7.474879999999999747e+00 3.427875999999999923e+00 -6.397650000000000281e-01 -9.224099999999999522e-01 7.480710000000000415e-01 -1.339793999999999929e+00 -1.869798999999999989e+00 -4.359169999999999989e-01 -2.973653999999999797e+00 4.875306000000000139e+00 -3.014021000000000061e+00 -1.302604000000000095e+00 4.434669000000000416e+00 2.793365000000000098e+00 -2.305649999999999922e-01 -4.362280000000000046e-01 -1.062150000000000039e-01 3.146581999999999990e+00 -2.718243000000000187e+00 -2.234858000000000011e+00 2.162812999999999874e+00 1.334289999999999921e-01 -3.017070000000000030e-01 -2.154844999999999899e+00 3.542939999999999978e-01 4.820300000000000279e-02 -3.602749000000000201e+00 -8.807540000000000369e-01 -1.228523000000000032e+00 2.224979999999999958e+00 9.037809999999999455e-01 4.999200000000000171e-02 -2.866070000000000007e-01 4.147989999999999733e-01 1.710402999999999896e+00
-7.212549999999999795e-01 -4.924459999999999948e-01 6.600399999999999601e-01 7.323699999999999655e-02 -3.546949999999999825e-01 1.348240000000000105e+00 5.213529000000000302e+00 1.493263999999999925e+00 -1.297104999999999952e+00 1.344399999999999935e-02 2.899200000000000041e-02 -5.392580000000000151e-01 1.217450000000000060e-01 -6.126030000000000086e-01 4.895860000000000212e-01 -8.106360000000000454e+00 -1.681539999999999979e-01 1.182476000000000083e+00 2.900929999999999898e-01 1.074141000000000012e+00 -3.903179999999999983e-01 1.212798000000000043e+00 1.649197000000000024e+00 4.534799999999999942e-01 1.850865999999999900e+00 -1.997336000000000000e+00 4.725759999999999961e-01 -9.006960000000000521e-01 -1.703249999999999931e+00 -1.530542999999999987e+00 1.245070000000000066e-01 -2.779449999999999976e-01 -4.097189999999999999e-01 1.660646999999999984e+00 1.926776000000000044e+00 -8.255899999999999350e-02 -1.999222999999999972e+00 -1.542794999999999916e+00 4.693640000000000034e-01 3.666960000000000219e-01 -1.154155999999999960e+00 -1.992970000000000019e-01 9.079460000000000308e-01 2.596129999999999827e-01 -7.311450000000000449e-01 -1.079740000000000005e-01 1.871396000000000059e+00 1.041829999999999978e-01
-6.823690000000000033e-01 -1.713518000000000097e+00 -9.865850000000000453e-01 2.582294999999999785e+00 -2.899506000000000139e+00 1.414609999999999923e+00 1.582011999999999974e+00 3.524426000000000059e+00 2.155371999999999844e+00 5.697579999999999867e-01 -2.181405999999999956e+00 -1.691837000000000035e+00 1.330789999999999917e+00 1.003327999999999998e+00 -4.281320000000000126e-01 -1.006879999999999997e+00 2.282399999999999984e-01 -5.652409999999999934e-01 -3.665007000000000126e+00 -4.579840000000000022e-01 -1.040397999999999934e+00 -3.104667000000000066e+00 -3.032443999999999917e+00 -2.478025000000000144e+00 4.658129999999999771e-01 1.958860999999999963e+00 -1.804800000000000015e-01 9.494559999999999667e-01 2.995665999999999940e+00 -1.190333000000000085e+00 -1.025687000000000015e+00 2.025541000000000036e+00 3.329937000000000147e+00 1.052256999999999998e+00 4.105700000000000321e-02 2.240685000000000038e+00 5.475710000000000299e-01 -1.230418000000000012e+00 -2.484099999999999850e-02 1.124490999999999907e+00 1.803170000000000051e-01 4.659079999999999888e-01 -1.171113000000000071e+00 -3.334509999999999974e-01 -2.145235000000000003e+00 4.512789999999999857e-01 -1.087079999999999991e-01 1.124595999999999929e+00
-4.520140000000000269e-01 7.336740000000000483e-01 6.042030000000000456e-01 -5.016190000000000371e-01 2.327180000000000082e-01 -1.052299999999999937e-02 3.864507999999999832e+00 2.623752000000000084e+00 4.812919999999999976e-01 -5.217000000000000526e-01 -2.003530000000000033e-01 2.601300000000000140e-02 3.061619999999999897e-01 -1.520410000000000095e-01 -1.118240000000000067e-01 -2.793240000000000167e-01 8.269710000000000116e-01 9.526069999999999816e-01 3.328010000000000135e-01 4.211529999999999996e-01 -3.520710000000000228e-01 5.580140000000000100e-01 -6.793329999999999647e-01 1.253700000000000092e-01 -1.716930000000000123e-01 -1.961499999999999910e-01 -9.401730000000000365e-01 -3.422740000000000227e-01 1.443419999999999981e-01 -1.440029999999999921e-01 -3.957104000000000177e+00 -2.260931999999999942e+00 -1.327369999999999939e-01 1.042669999999999986e-01 1.534159999999999968e-01 -1.021948999999999996e+00 8.115899999999999503e-02 -2.650980000000000003e-01 9.052000000000000324e-02 6.427819999999999645e-01 -8.057530000000000525e-01 -2.883180000000000187e-01 -1.000420000000000059e-01 2.250929999999999875e-01 1.067341000000000095e+00 4.360760000000000192e-01 -8.014599999999999502e-01 -3.457479999999999998e-01
-3.673000000000000154e-01 -2.300449999999999995e-01 -7.861099999999999755e-01 3.699680000000000191e-01 1.086529999999999996e-01 -7.776189999999999491e-01 -9.940599999999999437e-02 7.274899999999999700e-01 -1.213727000000000000e+00 -7.148649999999999727e-01 -1.308249999999999968e-01 3.307800000000000185e-01 2.095285000000000064e+00 -2.678969999999999962e-01 4.740400000000000169e-02 1.953880000000000061e-01 -1.015879999999999977e-01 7.941000000000000142e-03 -1.089649000000000090e+00 -2.865139999999999909e-01 1.188574000000000019e+00 2.990610000000000213e-01 1.603663000000000061e+00 8.485660000000000425e-01 1.295204999999999940e+00 -1.059093000000000062e+00 -1.462720000000000131e-01 -1.974440000000000084e-01 9.944699999999999374e-02 -8.492199999999999749e-02 -1.370129999999999959e-01 2.303627000000000091e+00 2.325100000000000083e-02 9.358640000000000292e-01 -1.903600000000000084e-02 3.709080000000000155e-01 -5.080209999999999448e-01 -2.008999999999999952e-01 -1.138870000000000021e-01 1.153048000000000073e+00 -9.517120000000000024e-01 8.448780000000000179e-01 -1.434109000000000078e+00 -9.929400000000000448e-01 -4.726319999999999966e-01 -1.796011999999999942e+00 -6.023300000000000320e-01 -6.713099999999999623e-02
-6.546809999999999574e-01 -1.720990000000000020e-01 6.714510000000000201e-01 9.771009999999999973e-01 -1.737449999999999939e+00 1.050184000000000006e+00 8.108750000000000124e-01 2.734909999999999841e-01 -7.021800000000000264e-02 1.571460000000000079e-01 -4.645599999999999730e-02 -1.338589999999999947e+00 -1.131965000000000110e+00 1.550043000000000060e+00 -9.054609999999999603e-01 1.596322999999999936e+00 -5.154141000000000084e+00 -1.521311000000000080e+00 -2.621694000000000191e+00 5.863152000000000363e+00 7.636389999999999567e-01 -2.066379999999999884e-01 7.345300000000000440e-02 8.041099999999999637e-02 6.589639999999999942e-01 4.159479999999999844e-01 1.734489999999999921e-01 -4.214220000000000188e-01 -6.633210000000000495e-01 -9.153930000000000122e-01 2.258846000000000132e+00 -8.202030000000000154e-01 -9.010989999999999833e-01 -9.751549999999999940e-01 -2.636120000000000130e-01 1.433443000000000023e+00 -1.427602000000000038e+00 1.543160000000000087e-01 1.000874999999999959e+00 1.557800999999999991e+00 -6.364370000000000305e-01 1.892060000000000131e-01 -4.380859999999999754e-01 8.604110000000000369e-01 5.200310000000000210e-01 -1.398119999999999918e-01 3.029060000000000086e-01 -2.306159999999999877e-01
-2.143960000000000032e-01 6.939159999999999773e-01 -8.891000000000000292e-02 -2.332609999999999961e-01 -5.839360000000000106e-01 -1.001222999999999974e+00 2.313232000000000177e+00 9.661570000000000435e-01 1.702466999999999953e+00 2.612550000000000150e-01 -3.673950000000000271e-01 -8.973950000000000538e-01 -2.605120000000000213e-01 4.763000000000000012e-01 5.668140000000000400e-01 -7.480860000000000287e-01 -8.250899999999999901e-01 -1.920080000000000120e-01 2.971269999999999745e-01 1.012661999999999951e+00 2.739940000000000153e-01 -2.642746999999999957e+00 1.079126999999999947e+00 -7.427570000000000006e-01 2.391490000000000005e-01 -4.563899999999999901e-02 -1.137450999999999990e+00 1.871210000000000095e-01 -2.122272000000000158e+00 -8.752799999999999470e-01 3.930310000000000192e-01 2.037879999999999969e-01 1.611239999999999895e-01 -7.092829999999999968e-01 2.006330000000000058e-01 1.476649999999999907e-01 4.503460000000000241e-01 4.264910000000000090e-01 9.834580000000000544e-01 -4.400799999999999851e-02 -1.827840000000000020e-01 7.907419999999999449e-01 3.002699999999999814e-01 -9.994969999999999688e-01 2.737129999999999841e-01 4.107629999999999892e-01 6.753900000000000181e-02 3.504800000000000276e-02
-2.603329999999999811e-01 -1.428860000000000130e-01 -3.983099999999999835e-02 -1.106975000000000042e+00 -1.570390000000000119e-01 -1.366630000000000011e+00 1.905443999999999916e+00 -7.321149999999999602e-01 2.281579999999999997e-01 3.340989999999999793e-01 -9.024801000000000073e+00 6.683671000000000362e+00 9.084299999999999320e-02 8.757460000000000244e-01 -7.322809999999999597e-01 -4.315709999999999824e-01 -6.399829999999999686e-01 3.159779999999999811e-01 -1.501891000000000087e+00 1.291214000000000084e+00 -2.094189999999999940e-01 6.309390000000000276e-01 -5.831990000000000229e-01 -9.150549999999999518e-01 3.475400000000000017e-02 5.502879999999999994e-01 2.192985999999999880e+00 -2.198049000000000142e+00 7.595051999999999914e+00 -5.415693000000000090e+00 1.289317000000000046e+00 -2.001524999999999999e+00 -1.819310999999999900e+00 1.076178999999999997e+00 -4.597859999999999725e-01 -6.908769999999999634e-01 3.441210000000000102e-01 2.092544999999999877e+00 -1.095750000000000002e+00 8.326599999999999557e-01 5.353000000000000119e-03 -4.447829999999999839e-01 -8.661189999999999722e-01 3.023799999999999821e-01 1.492478999999999889e+00 -1.734179999999999888e-01 1.028756000000000004e+00 1.816356000000000082e+00
5.421730000000000160e-01 -1.081445999999999907e+00 -9.482540000000000413e-01 -3.069270000000000054e-01 -9.436520000000000463e-01 -4.412050000000000138e-01 1.842759000000000036e+00 -7.371038999999999675e+00 3.529329999999999967e-01 -1.316581000000000001e+00 1.348570000000000046e+00 1.421300000000000008e+00 4.943831999999999560e+00 2.249572000000000127e+00 4.825764999999999638e+00 7.397740000000000427e-01 6.333149999999999613e-01 -8.058800000000000685e-02 -1.911507000000000067e+00 -2.158899999999999986e-01 -3.668370000000000242e-01 1.197610000000000063e-01 -8.170999999999999444e-03 2.524020000000000152e-01 -6.473999999999999720e-03 -1.154990000000000044e-01 -3.334900000000000087e-01 1.593220000000000081e+00 1.177083000000000101e+00 2.196009999999999907e-01 -2.001449999999999896e-01 -4.532869999999999955e-01 -1.018600000000000061e-02 3.968459999999999765e-01 -9.549910000000000343e-01 -7.973600000000000132e-02 -2.933499999999999996e-02 2.004541999999999824e+00 3.877450000000000063e-01 4.115429999999999922e-01 8.795969999999999622e-01 8.525719999999999965e-01 -6.234878000000000142e+00 2.995228000000000002e+00 -5.880005999999999844e+00 -5.840600000000000236e-01 -1.439320000000000044e-01 -1.720150000000000012e-01
-1.067854000000000081e+00 -1.025131999999999932e+00 -2.660370000000000235e-01 5.072510000000000074e-01 -1.648552999999999935e+00 2.547489000000000114e+00 -4.731969000000000314e+00 5.485910999999999760e+00 5.582380999999999815e+00 1.818210000000000104e-01 6.854500000000000037e-01 1.108959999999999946e-01 -2.944669999999999788e-01 7.547920000000000185e-01 -2.043435000000000112e+00 -1.246369999999999978e-01 2.085193999999999992e+00 -2.958180000000000254e-01 1.099580000000000002e-01 4.421869999999999967e-01 8.675199999999999578e-01 -1.177094000000000085e+00 -1.986570000000000003e-01 2.962719999999999798e-01 1.505268999999999968e+00 -1.321563999999999961e+00 -4.673390000000000044e-01 -4.156800000000000078e-02 -7.768779999999999575e-01 -1.260050000000000059e-01 7.787300000000000333e-01 -7.798658999999999786e+00 -3.655909999999999993e-01 -1.038545000000000051e+00 -1.427370000000000028e-01 -7.033070000000000155e-01 2.907190000000000052e-01 -7.269000000000000461e-02 9.644220000000000015e-01 3.831481999999999832e+00 1.704021000000000008e+00 -3.539159000000000166e+00 -2.139060000000000128e-01 -1.453003000000000045e+00 -2.813018000000000018e+00 1.484809000000000045e+00 3.280318999999999985e+00 2.507280000000000064e-01
-1.475360000000000005e-01 -6.720900000000000485e-02 -2.373480000000000034e-01 -1.628330000000000055e-01 1.382776000000000005e+00 -5.554919999999999858e-01 -1.616219999999999879e-01 5.477269999999999639e-01 -5.195189999999999531e-01 1.668320000000000081e-01 6.207829999999999737e-01 2.257765000000000022e+00 -7.234230000000000382e-01 -3.398769999999999847e-01 6.608129999999999837e-01 2.264971000000000068e+00 -2.407518000000000047e+00 -1.468353999999999937e+00 -5.574400000000000188e-02 -3.224552000000000085e+00 -2.680150000000000032e-01 -9.299889999999999546e-01 -1.223587999999999898e+00 2.341650000000000120e-01 1.498134999999999994e+00 -1.523865999999999943e+00 3.293070000000000164e-01 -2.697300000000000045e-02 1.404590000000000005e-01 8.245199999999999751e-02 1.124047000000000018e+00 2.494502999999999915e+00 4.167629999999999946e-01 1.920890000000000097e-01 -5.301800000000000263e-02 1.037509999999999960e-01 1.587419999999999942e-01 5.499199999999999644e-01 1.377205000000000013e+00 2.220000000000000022e-04 -1.340573999999999932e+00 -1.601056000000000035e+00 -1.676652000000000031e+00 2.847852000000000050e+00 7.183699999999999530e-01 -1.520262999999999920e+00 1.596181000000000072e+00 -1.530805999999999889e+00
-4.878939999999999944e-01 -7.464060000000000139e-01 -2.093750000000000056e-01 -1.542590000000000072e-01 4.682200000000000251e-01 1.721457000000000015e+00 1.199648000000000048e+00 -3.019286999999999832e+00 3.821626999999999885e+00 -3.539410000000000056e-01 -8.570109999999999673e-01 -2.513980000000000103e-01 5.547009999999999996e-01 6.614179999999999504e-01 7.638999999999999957e-03 8.598419999999999952e-01 5.836019999999999541e-01 8.019530000000000269e-01 2.322710000000000052e-01 1.004806000000000088e+00 -5.173599999999999727e-02 -1.191929999999999934e-01 1.287049000000000110e+00 2.437381999999999938e+00 1.818648999999999960e+00 1.873944000000000054e+00 -6.482339999999999769e-01 7.335500000000000353e-01 -5.856059999999999599e-01 9.640649999999999498e-01 -3.458854000000000095e+00 -2.433698999999999835e+00 -1.645521999999999929e+00 -2.597829999999999862e-01 -5.401620000000000310e-01 -5.679309999999999636e-01 -1.590206000000000008e+00 -1.295790999999999915e+00 -6.825139999999999540e-01 -4.463199999999999806e-02 -1.730200000000000071e-01 -4.348599999999999688e-02 -7.385019999999999918e-01 4.115300000000000069e-01 -2.351500000000000118e-02 1.808604000000000100e+00 3.360412000000000177e+00 -5.630414000000000030e+00
-4.945700999999999681e+00 2.058540000000000092e-01 -1.025760999999999923e+00 -3.089550000000000018e+00 -7.239860000000000184e-01 1.445432999999999968e+00 1.509250000000000036e-01 6.593599999999999461e-02 -2.977211000000000052e+00 1.277531999999999890e+00 1.020215000000000094e+00 -2.280162999999999940e+00 1.115587000000000106e+00 3.574109999999999787e-01 1.260070000000000079e-01 7.794410000000000505e-01 -9.481530000000000236e-01 -9.975230000000000485e-01 1.754912000000000027e+00 -2.490489999999999871e+00 -1.401920000000000055e+00 -2.115851999999999844e+00 -4.402802000000000326e+00 -2.492856999999999879e+00 2.256222999999999868e+00 8.771710000000000340e-01 4.356158999999999892e+00 6.387260000000000160e-01 -2.713240000000000096e-01 1.406838000000000033e+00 3.590090000000000003e+00 -3.005579999999999918e-01 6.500660000000000327e-01 1.127623000000000042e+00 -3.521329999999999738e-01 -2.066394999999999982e+00 -1.586390000000000022e-01 -8.566939999999999555e-01 2.724840000000000040e-01 1.804143999999999970e+00 5.003375000000000128e+00 4.584124000000000088e+00 -2.239936999999999845e+00 2.093619999999999925e-01 1.670999999999999985e-01 -1.945521999999999974e+00 2.606815000000000104e+00 2.336179999999999923e-01
-2.160499999999999921e-01 -8.328640000000000487e-01 6.429540000000000255e-01 -3.766059999999999963e-01 -2.653176000000000201e+00 2.368758000000000141e+00 -1.138990000000000002e-01 3.359899999999999692e-02 -2.311179999999999901e-01 -2.030669000000000057e+00 8.421119999999999717e-01 -2.084475999999999996e+00 -4.776329999999999742e-01 2.983640000000000181e-01 -2.619239999999999902e-01 9.973200000000000121e-02 2.756700000000000261e-01 2.090140000000000053e-01 1.337215000000000042e+00 -2.714400000000000146e-02 6.830000000000000134e-04 9.435550000000000326e-01 1.613834999999999908e+00 -9.339199999999999724e-01 -9.842266999999999655e+00 2.082819999999999949e-01 5.261154000000000330e+00 2.647000000000000047e-03 -1.998590000000000089e-01 2.985880000000000201e-01 2.737658000000000147e+00 -8.550900000000000167e-02 -3.096240000000000103e-01 3.638540000000000108e-01 -2.869220000000000104e-01 1.133707999999999938e+00 -5.615369999999999528e-01 1.309644999999999948e+00 9.154090000000000282e-01 -1.676825999999999928e+00 -2.888740000000000197e-01 -2.569520000000000137e-01 8.463640000000000052e-01 3.791479999999999850e-01 -5.487090000000000023e-01 8.964463000000000292e+00 -5.863070000000000226e-01 -6.203543999999999947e+00
-4.887199999999999878e-01 -3.144040000000000168e-01 1.072608000000000006e+00 1.224217000000000111e+00 7.344389999999999530e-01 -1.313782000000000005e+00 6.458709999999999729e-01 1.468763999999999958e+00 1.036777000000000060e+00 -1.900209999999999955e-01 2.066473999999999922e+00 -1.987460000000000060e-01 1.425812000000000079e+00 5.789570000000000549e-01 4.503780000000000006e-01 2.402890000000000026e-01 -3.905759999999999788e-01 8.666599999999999859e-01 2.030475000000000030e+00 -5.391499999999999765e-02 -1.974193000000000087e+00 -9.179300000000000237e-01 -2.104591000000000101e+00 -6.392379999999999729e-01 -3.485247000000000206e+00 5.701107999999999620e+00 3.865915999999999908e+00 2.543889000000000067e+00 -5.329621999999999638e+00 -5.753557999999999950e+00 1.248480000000000034e+00 -6.689000000000000501e-01 -5.595980000000000398e-01 -1.676930000000000032e+00 -8.065280000000000227e-01 -5.091980000000000395e-01 -2.623174999999999812e+00 1.169940000000000008e-01 2.092884999999999884e+00 8.917709999999999804e-01 -5.693390000000000395e-01 -2.898499999999999965e-01 -1.460164000000000017e+00 -3.684220000000000272e-01 3.215279999999999805e-01 5.913829999999999920e-01 -6.043899999999999967e-02 1.531411000000000078e+00
-2.939419999999999811e-01 -1.013599999999999918e-02 -6.036740000000000439e-01 -1.210441000000000100e+00 -2.482489999999999974e-01 -2.377921000000000173e+00 -2.256479000000000124e+00 -8.496160000000000379e-01 1.177310000000000023e-01 2.029330999999999996e+00 -8.009340000000000348e-01 -2.040780000000000094e-01 -1.037250000000000005e+00 1.885372999999999966e+00 1.310019999999999962e+00 -1.170719999999999955e-01 -2.169315000000000104e+00 -8.169400000000000273e-02 1.970658000000000021e+00 -1.576515000000000111e+00 -4.371079999999999965e-01 -2.028999999999999901e-02 2.807077000000000044e+00 -2.311408999999999825e+00 1.883977000000000013e+00 -1.590063999999999922e+00 1.716490000000000071e+00 3.412582000000000004e+00 8.773920000000000385e+00 -6.766113999999999962e+00 1.511922999999999906e+00 -8.655929999999999458e-01 2.780126999999999793e+00 -9.170519999999999783e-01 -1.303824000000000094e+00 -6.223739999999999828e-01 -4.909379999999999855e-01 3.409610999999999947e+00 -6.453630000000000200e-01 -4.017470000000000319e+00 -7.618022999999999989e+00 8.711145000000000138e+00 -1.695656000000000052e+00 7.045010000000000439e-01 -2.256829999999999947e-01 1.248116000000000003e+00 -5.482150000000000079e-01 -3.600940000000000252e-01
-5.201800000000000174e-02 5.120890000000000164e-01 1.138881999999999950e+00 -1.110411000000000037e+00 -3.791550000000000198e-01 -5.964509999999999534e-01 -2.524819999999999842e-01 -3.458439999999999848e-01 9.502180000000000071e-01 -2.596870000000000012e-01 -1.180999999999999975e-03 3.389130000000000198e-01 2.184616000000000113e+00 -1.915400000000000089e-02 -9.475630000000000441e-01 7.233549999999999702e-01 -1.306279999999999941e-01 -2.578119999999999856e-01 -3.218050000000000077e-01 9.905049999999999688e-01 -5.071480000000000432e-01 -1.026070000000000038e-01 -7.877929999999999655e-01 -4.003209999999999824e-01 1.486579000000000095e+00 7.064869999999999761e-01 7.692499999999999338e-02 -3.176989999999999981e+00 -2.881540000000000212e-01 8.260177999999999798e+00 -8.752870000000000372e-01 8.214120000000000310e-01 7.308240000000000292e-01 7.538340000000000041e-01 -1.972720000000000029e-01 -1.902500000000000024e-02 7.440890000000000004e-01 1.963650000000000118e-01 6.761420000000000208e-01 -2.123139999999999805e+00 -1.448050999999999977e+00 -8.484300000000000175e-02 2.447365000000000013e+00 -2.123230000000000117e-01 -8.587657000000000096e+00 -6.541199999999999792e-02 5.826970000000000205e-01 -7.712609999999999744e-01
3.920409999999999950e+00 3.358375999999999806e+00 -6.622339999999999893e-01 9.871000000000000607e-02 -1.190650000000000042e-01 -4.804720000000000102e-01 -3.857063999999999826e+00 1.425537999999999972e+00 8.851630000000000331e-01 1.858959999999999946e+00 4.710340000000000082e-01 -3.592710000000000070e-01 1.868155999999999928e+00 -2.472998000000000030e+00 1.263570000000000082e+00 -9.648700000000000332e-02 2.809599999999999875e-01 -5.264630000000000143e-01 -2.823263999999999996e+00 -2.645540000000000114e-01 -5.610720000000000152e-01 -4.044025999999999677e+00 3.949539000000000133e+00 4.377324999999999910e+00 -6.243379999999999486e-01 -4.959100000000000313e-02 -1.478962000000000110e+00 -6.174220000000000264e-01 5.549500000000000544e-01 -1.167870000000000019e-01 -7.355150000000000299e-01 2.268040000000000056e-01 8.175970000000000182e-01 -1.324089999999999989e-01 1.166668999999999956e+00 -2.977587000000000206e+00 3.131752999999999787e+00 -5.982171000000000127e+00 -6.366488999999999621e+00 -1.574381999999999948e+00 -1.734166000000000096e+00 8.369739999999999958e-01 3.332612999999999825e+00 -7.104329999999999812e-01 3.983438000000000034e+00 2.943069999999999853e-01 -1.008919999999999956e-01 1.365272000000000041e+00