4.745105762999999754e+00 0.000000000000000000e+00 0.000000000000000000e+00 -8.382648800000000455e-02 4.486519130999999661e+00 0.000000000000000000e+00 -2.628413290000000124e-01 1.757979179999999975e-01 1.886860767199999955e+01
4.755766987000000334e+00 0.000000000000000000e+00 0.000000000000000000e+00 8.704729399999999728e-02 4.596495810000000404e+00 0.000000000000000000e+00 4.777686449999999918e-01 1.344753830000000039e-01 1.837984301499999873e+01
4.648122371000000363e+00 0.000000000000000000e+00 0.000000000000000000e+00 1.137023310000000037e-01 4.280496505000000340e+00 0.000000000000000000e+00 1.670447770000000054e-01 -3.625587679999999757e-01 1.584403416800000031e+01
4.586427774999999762e+00 0.000000000000000000e+00 0.000000000000000000e+00 3.065382800000000102e-02 4.229567271999999711e+00 0.000000000000000000e+00 -2.532372099999999904e-01 2.818901839999999881e-01 1.938295280899999895e+01
4.627596226999999729e+00 0.000000000000000000e+00 0.000000000000000000e+00 4.739673199999999698e-02 4.441227925999999826e+00 0.000000000000000000e+00 1.480427029999999977e-01 1.585281829999999892e-01 1.605095412000000010e+01
4.811183876000000303e+00 0.000000000000000000e+00 0.000000000000000000e+00 -1.014125699999999936e-01 4.502721204000000199e+00 0.000000000000000000e+00 -3.536701999999999901e-02 1.598805650000000023e-01 1.965752396499999932e+01
4.767189573999999652e+00 0.000000000000000000e+00 0.000000000000000000e+00 8.273224399999999645e-02 4.536620069999999671e+00 0.000000000000000000e+00 5.666102399999999734e-02 3.699974039999999742e-01 1.747641207099999860e+01
4.659068086000000442e+00 0.000000000000000000e+00 0.000000000000000000e+00 -1.341135159999999882e-01 4.516292295000000401e+00 0.000000000000000000e+00 -3.651457450000000216e-01 2.123355749999999986e-01 1.288467047299999990e+01
4.709686761000000388e+00 0.000000000000000000e+00 0.000000000000000000e+00 -1.113942130000000058e-01 4.522985410000000428e+00 0.000000000000000000e+00 -3.010412279999999940e-01 1.492821290000000134e-01 1.710813449100000128e+01
4.597154642999999652e+00 0.000000000000000000e+00 0.000000000000000000e+00 -2.634716600000000172e-02 4.345771677000000111e+00 0.000000000000000000e+00 -6.391000900000000373e-02 -4.198389300000000129e-02 1.653164867099999924e+01
4.767189573999999652e+00 0.000000000000000000e+00 0.000000000000000000e+00 8.273224399999999645e-02 4.536620069999999671e+00 0.000000000000000000e+00 5.666102399999999734e-02 3.699974039999999742e-01 1.747641207099999860e+01
4.468946367000000031e+00 0.000000000000000000e+00 0.000000000000000000e+00 6.917064400000000335e-02 4.265529413000000325e+00 0.000000000000000000e+00 2.354134099999999896e-01 -1.465436390000000033e-01 1.402435979200000027e+01
4.558228859999999827e+00 0.000000000000000000e+00 0.000000000000000000e+00 6.305056800000000128e-02 4.426647137999999870e+00 0.000000000000000000e+00 -1.152735000000000010e-01 2.812637279999999906e-01 1.449663421900000060e+01
4.848514594000000066e+00 0.000000000000000000e+00 0.000000000000000000e+00 5.350416999999999673e-03 4.564171771999999905e+00 0.000000000000000000e+00 -3.104454249999999971e-01 -5.142374130000000321e-01 1.807684176900000139e+01
4.788422651000000307e+00 0.000000000000000000e+00 0.000000000000000000e+00 -1.315397100000000041e-02 4.482989253000000396e+00 0.000000000000000000e+00 -2.178667569999999942e-01 3.399100800000000311e-02 1.474098288000000068e+01
4.451388084999999606e+00 0.000000000000000000e+00 0.000000000000000000e+00 -6.675737000000000164e-03 4.333230195999999701e+00 0.000000000000000000e+00 -1.305718379999999956e-01 -1.727852370000000082e-01 1.590676905399999974e+01
4.848514594000000066e+00 0.000000000000000000e+00 0.000000000000000000e+00 5.350416999999999673e-03 4.564171771999999905e+00 0.000000000000000000e+00 -3.104454249999999971e-01 -5.142374130000000321e-01 1.807684176900000139e+01
4.670859085000000022e+00 0.000000000000000000e+00 0.000000000000000000e+00 -4.212597000000000216e-03 4.361633592999999642e+00 0.000000000000000000e+00 -3.196392800000000256e-01 -1.916786629999999991e-01 1.367015228800000060e+01
4.407955537000000312e+00 0.000000000000000000e+00 0.000000000000000000e+00 5.530755799999999972e-02 4.421257257999999801e+00 0.000000000000000000e+00 3.861847290000000044e-01 -5.446156900000000134e-02 1.771115036200000148e+01
4.615992355999999575e+00 0.000000000000000000e+00 0.000000000000000000e+00 2.424667100000000089e-02 4.398374883999999874e+00 0.000000000000000000e+00 -3.021646199999999949e-01 -1.787477110000000036e-01 1.391150622099999978e+01
4.407955537000000312e+00 0.000000000000000000e+00 0.000000000000000000e+00 5.530755799999999972e-02 4.421257257999999801e+00 0.000000000000000000e+00 3.861847290000000044e-01 -5.446156900000000134e-02 1.771115036200000148e+01
4.391824779000000234e+00 0.000000000000000000e+00 0.000000000000000000e+00 2.470427600000000071e-02 4.124978421999999867e+00 0.000000000000000000e+00 -4.233529870000000139e-01 -4.150295039999999935e-01 1.703578105500000106e+01
4.776825823000000248e+00 0.000000000000000000e+00 0.000000000000000000e+00 8.016334799999999539e-02 4.611222724000000106e+00 0.000000000000000000e+00 6.141437300000000127e-02 3.884677610000000225e-01 1.359081443400000033e+01
4.709686761000000388e+00 0.000000000000000000e+00 0.000000000000000000e+00 -1.113942130000000058e-01 4.522985410000000428e+00 0.000000000000000000e+00 -3.010412279999999940e-01 1.492821290000000134e-01 1.710813449100000128e+01
4.604253249000000103e+00 0.000000000000000000e+00 0.000000000000000000e+00 -2.375375799999999982e-02 4.334128611999999769e+00 0.000000000000000000e+00 1.579146710000000065e-01 1.110498969999999946e-01 1.378747072900000070e+01
4.761083561000000408e+00 0.000000000000000000e+00 0.000000000000000000e+00 -1.247738969999999947e-01 4.371202685000000088e+00 0.000000000000000000e+00 1.556408999999999918e-02 -6.925826300000000046e-02 1.647971560399999902e+01
4.767189573999999652e+00 0.000000000000000000e+00 0.000000000000000000e+00 8.273224399999999645e-02 4.536620069999999671e+00 0.000000000000000000e+00 5.666102399999999734e-02 3.699974039999999742e-01 1.747641207099999860e+01
4.591312446999999963e+00 0.000000000000000000e+00 0.000000000000000000e+00 -3.424268300000000292e-02 4.605063344000000392e+00 0.000000000000000000e+00 -4.142142299999999888e-02 2.239306169999999985e-01 1.839859748199999956e+01
4.792322403000000008e+00 0.000000000000000000e+00 0.000000000000000000e+00 -1.160431380000000040e-01 4.350010319999999986e+00 0.000000000000000000e+00 1.972473660000000073e-01 -2.180541420000000064e-01 1.619446085399999902e+01
4.779355653999999731e+00 0.000000000000000000e+00 0.000000000000000000e+00 -1.190670209999999951e-01 4.373654997000000044e+00 0.000000000000000000e+00 6.788052399999999764e-02 -4.802244489999999977e-01 1.959969625400000126e+01
4.709686761000000388e+00 0.000000000000000000e+00 0.000000000000000000e+00 -1.113942130000000058e-01 4.522985410000000428e+00 0.000000000000000000e+00 -3.010412279999999940e-01 1.492821290000000134e-01 1.710813449100000128e+01
4.507128276999999628e+00 0.000000000000000000e+00 0.000000000000000000e+00 1.524463199999999928e-02 4.392209573999999783e+00 0.000000000000000000e+00 4.633030189999999826e-01 3.589316099999999982e-02 1.638131775100000098e+01
4.506283357000000045e+00 0.000000000000000000e+00 0.000000000000000000e+00 -6.531427600000000444e-02 4.515157238999999656e+00 0.000000000000000000e+00 3.435573069999999785e-01 -1.571046520000000113e-01 1.326266796100000001e+01
4.693127286000000176e+00 0.000000000000000000e+00 0.000000000000000000e+00 9.494488000000000580e-03 4.343005108999999919e+00 0.000000000000000000e+00 2.616354220000000064e-01 -1.915882240000000014e-01 1.359946686400000004e+01
4.711952553999999793e+00 0.000000000000000000e+00 0.000000000000000000e+00 8.478049499999999739e-02 4.404536171000000166e+00 0.000000000000000000e+00 -2.515536489999999903e-01 1.965890099999999946e-02 1.609218195100000059e+01
4.848514594000000066e+00 0.000000000000000000e+00 0.000000000000000000e+00 5.350416999999999673e-03 4.564171771999999905e+00 0.000000000000000000e+00 -3.104454249999999971e-01 -5.142374130000000321e-01 1.807684176900000139e+01
4.761083561000000408e+00 0.000000000000000000e+00 0.000000000000000000e+00 -1.247738969999999947e-01 4.371202685000000088e+00 0.000000000000000000e+00 1.556408999999999918e-02 -6.925826300000000046e-02 1.647971560399999902e+01
4.693127286000000176e+00 0.000000000000000000e+00 0.000000000000000000e+00 9.494488000000000580e-03 4.343005108999999919e+00 0.000000000000000000e+00 2.616354220000000064e-01 -1.915882240000000014e-01 1.359946686400000004e+01
4.758132076999999960e+00 0.000000000000000000e+00 0.000000000000000000e+00 -1.086384809999999951e-01 4.261170122000000227e+00 0.000000000000000000e+00 5.313193470000000529e-01 4.837116320000000025e-01 1.965737367399999869e+01
4.761083561000000408e+00 0.000000000000000000e+00 0.000000000000000000e+00 -1.247738969999999947e-01 4.371202685000000088e+00 0.000000000000000000e+00 1.556408999999999918e-02 -6.925826300000000046e-02 1.647971560399999902e+01
4.767189573999999652e+00 0.000000000000000000e+00 0.000000000000000000e+00 8.273224399999999645e-02 4.536620069999999671e+00 0.000000000000000000e+00 5.666102399999999734e-02 3.699974039999999742e-01 1.747641207099999860e+01
4.670859085000000022e+00 0.000000000000000000e+00 0.000000000000000000e+00 -4.212597000000000216e-03 4.361633592999999642e+00 0.000000000000000000e+00 -3.196392800000000256e-01 -1.916786629999999991e-01 1.367015228800000060e+01
4.488262653999999685e+00 0.000000000000000000e+00 0.000000000000000000e+00 -8.684031600000000073e-02 4.465962189999999943e+00 0.000000000000000000e+00 -3.253163589999999994e-01 1.096882639999999937e-01 1.953097571600000038e+01
4.788422651000000307e+00 0.000000000000000000e+00 0.000000000000000000e+00 -1.315397100000000041e-02 4.482989253000000396e+00 0.000000000000000000e+00 -2.178667569999999942e-01 3.399100800000000311e-02 1.474098288000000068e+01
4.648122371000000363e+00 0.000000000000000000e+00 0.000000000000000000e+00 1.137023310000000037e-01 4.280496505000000340e+00 0.000000000000000000e+00 1.670447770000000054e-01 -3.625587679999999757e-01 1.584403416800000031e+01
4.670859085000000022e+00 0.000000000000000000e+00 0.000000000000000000e+00 -4.212597000000000216e-03 4.361633592999999642e+00 0.000000000000000000e+00 -3.196392800000000256e-01 -1.916786629999999991e-01 1.367015228800000060e+01
4.630339972999999887e+00 0.000000000000000000e+00 0.000000000000000000e+00 2.924063299999999851e-02 4.507041016999999705e+00 0.000000000000000000e+00 -3.061827460000000056e-01 -2.527225099999999905e-02 1.409771281799999976e+01
4.587736940000000097e+00 0.000000000000000000e+00 0.000000000000000000e+00 -1.127849560000000056e-01 4.459904542000000305e+00 0.000000000000000000e+00 2.743142980000000120e-01 -2.335356369999999904e-01 1.469099359600000021e+01
4.761083561000000408e+00 0.000000000000000000e+00 0.000000000000000000e+00 -1.247738969999999947e-01 4.371202685000000088e+00 0.000000000000000000e+00 1.556408999999999918e-02 -6.925826300000000046e-02 1.647971560399999902e+01
4.788422651000000307e+00 0.000000000000000000e+00 0.000000000000000000e+00 -1.315397100000000041e-02 4.482989253000000396e+00 0.000000000000000000e+00 -2.178667569999999942e-01 3.399100800000000311e-02 1.474098288000000068e+01
4.811183876000000303e+00 0.000000000000000000e+00 0.000000000000000000e+00 -1.014125699999999936e-01 4.502721204000000199e+00 0.000000000000000000e+00 -3.536701999999999901e-02 1.598805650000000023e-01 1.965752396499999932e+01
4.506283357000000045e+00 0.000000000000000000e+00 0.000000000000000000e+00 -6.531427600000000444e-02 4.515157238999999656e+00 0.000000000000000000e+00 3.435573069999999785e-01 -1.571046520000000113e-01 1.326266796100000001e+01
4.761083561000000408e+00 0.000000000000000000e+00 0.000000000000000000e+00 -1.247738969999999947e-01 4.371202685000000088e+00 0.000000000000000000e+00 1.556408999999999918e-02 -6.925826300000000046e-02 1.647971560399999902e+01
4.848514594000000066e+00 0.000000000000000000e+00 0.000000000000000000e+00 5.350416999999999673e-03 4.564171771999999905e+00 0.000000000000000000e+00 -3.104454249999999971e-01 -5.142374130000000321e-01 1.807684176900000139e+01
4.761083561000000408e+00 0.000000000000000000e+00 0.000000000000000000e+00 -1.247738969999999947e-01 4.371202685000000088e+00 0.000000000000000000e+00 1.556408999999999918e-02 -6.925826300000000046e-02 1.647971560399999902e+01
4.711952553999999793e+00 0.000000000000000000e+00 0.000000000000000000e+00 8.478049499999999739e-02 4.404536171000000166e+00 0.000000000000000000e+00 -2.515536489999999903e-01 1.965890099999999946e-02 1.609218195100000059e+01
4.558228859999999827e+00 0.000000000000000000e+00 0.000000000000000000e+00 6.305056800000000128e-02 4.426647137999999870e+00 0.000000000000000000e+00 -1.152735000000000010e-01 2.812637279999999906e-01 1.449663421900000060e+01
4.767189573999999652e+00 0.000000000000000000e+00 0.000000000000000000e+00 8.273224399999999645e-02 4.536620069999999671e+00 0.000000000000000000e+00 5.666102399999999734e-02 3.699974039999999742e-01 1.747641207099999860e+01
4.615992355999999575e+00 0.000000000000000000e+00 0.000000000000000000e+00 2.424667100000000089e-02 4.398374883999999874e+00 0.000000000000000000e+00 -3.021646199999999949e-01 -1.787477110000000036e-01 1.391150622099999978e+01
4.693127286000000176e+00 0.000000000000000000e+00 0.000000000000000000e+00 9.494488000000000580e-03 4.343005108999999919e+00 0.000000000000000000e+00 2.616354220000000064e-01 -1.915882240000000014e-01 1.359946686400000004e+01
4.758132076999999960e+00 0.000000000000000000e+00 0.000000000000000000e+00 -1.086384809999999951e-01 4.261170122000000227e+00 0.000000000000000000e+00 5.313193470000000529e-01 4.837116320000000025e-01 1.965737367399999869e+01
4.761083561000000408e+00 0.000000000000000000e+00 0.000000000000000000e+00 -1.247738969999999947e-01 4.371202685000000088e+00 0.000000000000000000e+00 1.556408999999999918e-02 -6.925826300000000046e-02 1.647971560399999902e+01
4.591312446999999963e+00 0.000000000000000000e+00 0.000000000000000000e+00 -3.424268300000000292e-02 4.605063344000000392e+00 0.000000000000000000e+00 -4.142142299999999888e-02 2.239306169999999985e-01 1.839859748199999956e+01
4.670859085000000022e+00 0.000000000000000000e+00 0.000000000000000000e+00 -4.212597000000000216e-03 4.361633592999999642e+00 0.000000000000000000e+00 -3.196392800000000256e-01 -1.916786629999999991e-01 1.367015228800000060e+01
4.608078869999999938e+00 0.000000000000000000e+00 0.000000000000000000e+00 1.317316520000000046e-01 4.389635874999999743e+00 0.000000000000000000e+00 2.829956279999999991e-01 3.097673329999999781e-01 1.463823756699999912e+01
4.709686761000000388e+00 0.000000000000000000e+00 0.000000000000000000e+00 -1.113942130000000058e-01 4.522985410000000428e+00 0.000000000000000000e+00 -3.010412279999999940e-01 1.492821290000000134e-01 1.710813449100000128e+01
4.767189573999999652e+00 0.000000000000000000e+00 0.000000000000000000e+00 8.273224399999999645e-02 4.536620069999999671e+00 0.000000000000000000e+00 5.666102399999999734e-02 3.699974039999999742e-01 1.747641207099999860e+01
4.709686761000000388e+00 0.000000000000000000e+00 0.000000000000000000e+00 -1.113942130000000058e-01 4.522985410000000428e+00 0.000000000000000000e+00 -3.010412279999999940e-01 1.492821290000000134e-01 1.710813449100000128e+01
4.670859085000000022e+00 0.000000000000000000e+00 0.000000000000000000e+00 -4.212597000000000216e-03 4.361633592999999642e+00 0.000000000000000000e+00 -3.196392800000000256e-01 -1.916786629999999991e-01 1.367015228800000060e+01
4.391824779000000234e+00 0.000000000000000000e+00 0.000000000000000000e+00 2.470427600000000071e-02 4.124978421999999867e+00 0.000000000000000000e+00 -4.233529870000000139e-01 -4.150295039999999935e-01 1.703578105500000106e+01
4.745105762999999754e+00 0.000000000000000000e+00 0.000000000000000000e+00 -8.382648800000000455e-02 4.486519130999999661e+00 0.000000000000000000e+00 -2.628413290000000124e-01 1.757979179999999975e-01 1.886860767199999955e+01
4.709686761000000388e+00 0.000000000000000000e+00 0.000000000000000000e+00 -1.113942130000000058e-01 4.522985410000000428e+00 0.000000000000000000e+00 -3.010412279999999940e-01 1.492821290000000134e-01 1.710813449100000128e+01
4.507128276999999628e+00 0.000000000000000000e+00 0.000000000000000000e+00 1.524463199999999928e-02 4.392209573999999783e+00 0.000000000000000000e+00 4.633030189999999826e-01 3.589316099999999982e-02 1.638131775100000098e+01
4.745105762999999754e+00 0.000000000000000000e+00 0.000000000000000000e+00 -8.382648800000000455e-02 4.486519130999999661e+00 0.000000000000000000e+00 -2.628413290000000124e-01 1.757979179999999975e-01 1.886860767199999955e+01
4.659068086000000442e+00 0.000000000000000000e+00 0.000000000000000000e+00 -1.341135159999999882e-01 4.516292295000000401e+00 0.000000000000000000e+00 -3.651457450000000216e-01 2.123355749999999986e-01 1.288467047299999990e+01
4.591312446999999963e+00 0.000000000000000000e+00 0.000000000000000000e+00 -3.424268300000000292e-02 4.605063344000000392e+00 0.000000000000000000e+00 -4.142142299999999888e-02 2.239306169999999985e-01 1.839859748199999956e+01
4.767189573999999652e+00 0.000000000000000000e+00 0.000000000000000000e+00 8.273224399999999645e-02 4.536620069999999671e+00 0.000000000000000000e+00 5.666102399999999734e-02 3.699974039999999742e-01 1.747641207099999860e+01
