1.251500000000000057e+00 2.089409999999999989e+00 1.181359999999999966e+00 2.551400000000000112e+00 4.233979999999999855e+00 1.242939999999999934e+00 3.716099999999999959e-01 2.802430000000000199e+00 6.375869999999999926e+00 3.956859999999999822e+00 1.854789999999999939e+00 3.234129999999999949e+00 1.581939999999999902e+00 5.446499999999999675e-01 6.575070000000000192e+00 2.831179999999999808e+00 2.596459999999999990e+00 5.492370000000000196e+00 3.783609999999999918e+00 3.453300000000000258e-01 5.285269999999999690e+00 5.440599999999999881e-01 1.727139999999999898e+00 8.537100000000000577e+00 3.794579999999999842e+00 4.077020000000000088e+00 3.335529999999999884e+00 1.211060000000000025e+00 9.283099999999999685e-01 4.347730000000000317e+00 1.687999999999999917e-02 4.233279999999999710e+00 1.107550000000000034e+00 1.106139999999999901e+00 3.810839999999999783e+00 8.764570000000000860e+00 2.875370000000000203e+00 2.312219999999999942e+00 7.910059999999999647e+00 3.543340000000000156e+00 1.961529999999999996e+00 9.862800000000000455e-01 3.543489999999999807e+00 4.529729999999999812e+00 7.655850000000000044e+00 1.605280000000000040e+00 3.041679999999999939e+00 3.333050000000000068e+00
4.452890000000000015e+00 1.800689999999999902e+00 8.068979999999999819e+00 3.214620000000000033e+00 2.758270000000000000e+00 4.585679999999999978e+00 1.666400000000000103e+00 1.300990000000000091e+00 5.976379999999999804e+00 5.883399999999999741e-01 4.148769999999999847e+00 7.636140000000000150e+00 2.207199999999999829e+00 6.029200000000000115e-01 3.402309999999999945e+00 4.018200000000000216e+00 1.904160000000000075e+00 8.102399999999999602e-01 1.558519999999999905e+00 1.402430000000000065e+00 7.640200000000000324e-01 3.096400000000000263e-01 4.071290000000000298e+00 6.615600000000000369e-01 2.627489999999999881e+00 3.289940000000000087e+00 6.985000000000000320e+00 3.980420000000000069e+00 7.301199999999999912e-01 5.673510000000000275e+00 2.589129999999999932e+00 3.902089999999999836e+00 1.497309999999999919e+00 7.193100000000000049e-01 2.407220000000000137e+00 2.859970000000000123e+00 4.647330000000000183e+00 3.024200000000000221e-01 3.001560000000000006e+00 3.239889999999999937e+00 3.970460000000000100e+00 8.964259999999999451e+00 9.575799999999999867e-01 3.671170000000000044e+00 4.857070000000000221e+00 2.308559999999999945e+00 1.019460000000000033e+00 8.284290000000000376e+00
3.433619999999999894e+00 2.159300000000000108e-01 8.914580000000000837e+00 6.954099999999999726e-01 4.077899999999999636e+00 7.242969999999999686e+00 1.602770000000000028e+00 3.535140000000000171e+00 1.323090000000000099e+00 4.043339999999999712e+00 2.383570000000000189e+00 4.521620000000000417e+00 3.190910000000000135e+00 1.870870000000000033e+00 1.468699999999999894e+00 1.187279999999999891e+00 2.219269999999999854e+00 3.201039999999999885e+00 3.115369999999999973e+00 4.930399999999999783e-01 3.888199999999999878e+00 4.042530000000000179e+00 2.273559999999999803e+00 9.155950000000000699e+00 4.186670000000000336e+00 4.141449999999999854e+00 2.216790000000000038e+00 8.466700000000000337e-01 -4.132000000000000256e-02 4.861720000000000041e+00 4.262950000000000017e+00 3.847579999999999778e+00 1.507699999999999874e-01 4.128079999999999750e+00 1.989349999999999952e+00 6.939639999999999809e+00 8.699299999999999811e-01 1.455780000000000074e+00 8.770000000000000018e-01 2.989549999999999930e+00 4.098969999999999558e+00 6.627530000000000143e+00 1.744169999999999998e+00 1.970739999999999936e+00 8.397550000000000736e+00 1.761959999999999971e+00 2.251660000000000217e+00 5.661719999999999864e+00
3.311059999999999892e+00 3.241190000000000015e+00 9.003460000000000463e+00 3.433409999999999851e+00 1.920800000000000063e+00 5.664539999999999687e+00 2.405799999999999883e-01 3.893170000000000019e+00 6.084660000000000402e+00 3.112500000000000266e-01 3.787589999999999790e+00 2.560399999999999898e-01 1.634220000000000006e+00 2.083040000000000003e+00 1.936070000000000135e+01 1.601420000000000066e+00 2.066829999999999945e+00 7.355850000000000222e+00 3.652890000000000192e+00 2.138030000000000097e+00 3.442089999999999872e+00 1.428819999999999979e+00 2.090669999999999806e+00 2.343290000000000095e+00 3.971340000000000092e+00 2.236509999999999998e+00 1.357040000000000024e+00 2.480630000000000113e+00 2.465900000000000036e-01 1.399450000000000083e+00 2.636280000000000179e+00 4.003239999999999910e+00 6.746699999999999697e+00 1.210539999999999949e+00 1.712639999999999940e+00 4.964680000000000426e+00 2.831400000000000028e-01 1.726499999999999979e-01 2.621269999999999989e+00 1.449300000000000033e+00 4.510500000000000065e-01 9.138260000000000716e+00 2.561010000000000009e+00 4.024790000000000312e+00 4.232339999999999769e+00 3.985879999999999868e+00 1.122270000000000101e+00 8.256600000000000605e+00
1.342019999999999991e+00 2.786960000000000104e+00 2.949329999999999785e+00 3.877940000000000165e+00 2.205900000000000194e+00 6.592710000000000292e+00 3.688600000000000212e-01 2.274200000000000110e-01 5.816980000000000040e+00 3.261839999999999851e+00 1.396919999999999940e+00 9.107279999999999376e+00 2.777670000000000083e+00 4.409539999999999793e+00 6.698739999999999917e+00 7.417000000000000259e-01 4.113100000000000089e-01 6.938400000000000123e-01 1.084500000000000020e+00 2.480659999999999865e+00 4.992169999999999774e+00 1.182639999999999914e+00 1.284880000000000022e+00 8.020720000000000738e+00 4.544130000000000003e+00 3.783119999999999816e+00 8.246639999999999304e+00 3.558320000000000149e+00 2.723780000000000090e+00 4.281539999999999679e+00 2.415960000000000107e+00 3.563229999999999897e+00 8.951019999999999754e+00 1.177200000000000052e-01 5.853599999999999914e-01 3.188260000000000094e+00 2.924110000000000209e+00 7.702099999999999502e-01 1.605390000000000095e+00 2.244439999999999991e+00 6.264000000000000123e-02 4.228810000000000180e+00 4.264850000000000030e+00 2.693979999999999819e+00 1.353569999999999940e+00 1.833709999999999951e+00 2.460420000000000051e+00 1.504199999999999982e-01
2.161610000000000031e+00 4.474619999999999820e+00 1.700250000000000039e+00 1.345029999999999948e+00 4.021259999999999835e+00 4.244469999999999743e+00 3.189869999999999983e+00 2.279669999999999863e+00 1.287509999999999932e+00 3.704270000000000174e+00 4.456400000000000361e+00 5.713059999999999583e+00 3.932300000000000240e-01 3.039639999999999898e+00 8.153180000000000760e+00 2.620740000000000069e+00 3.026320000000000121e+00 8.647669999999999746e+00 2.593960000000000043e+00 2.351550000000000029e+00 6.040890000000000093e+00 7.301299999999999457e-01 2.429269999999999818e+00 9.046999999999999487e-01 1.462739999999999929e+00 9.525799999999999823e-01 8.286289999999999267e+00 1.736300000000000066e-01 2.115639999999999965e+00 5.486900000000000333e+00 4.056320000000000370e+00 3.828949999999999854e+00 3.087750000000000217e+00 8.731999999999999484e-02 2.249500000000000111e-01 9.167399999999999993e-01 2.988309999999999800e+00 1.352440000000000087e+00 3.608470000000000066e+00 3.685999999999999832e-01 1.428369999999999918e+00 2.949469999999999814e+00 3.790290000000000159e+00 6.766400000000000192e-01 7.964850000000000207e+00 1.368379999999999930e+00 4.487549999999999706e+00 6.192910000000000359e+00
3.870890000000000164e+00 3.795490000000000030e+00 7.096400000000000485e-01 2.941790000000000127e+00 1.583120000000000083e+00 8.529149999999999565e+00 2.037259999999999849e+00 9.358800000000000452e-01 3.800600000000000200e+00 2.993600000000000150e-01 7.565699999999999648e-01 7.667469999999999786e+00 2.676470000000000127e+00 1.227850000000000108e+00 1.134479999999999933e+00 1.387289999999999912e+00 3.237000000000000099e+00 7.874170000000000336e+00 4.238050000000000317e+00 2.901060000000000194e+00 6.703719999999999679e+00 3.421359999999999957e+00 3.909510000000000041e+00 9.154040000000000177e+00 1.589050000000000074e+00 3.018590000000000106e+00 5.116069999999999673e+00 1.505630000000000024e+00 3.833320000000000061e+00 1.008099999999999996e+00 2.732530000000000125e+00 5.055500000000000549e-01 6.010040000000000049e+00 1.741039999999999921e+00 3.342260000000000009e+00 3.025339999999999918e+00 4.338980000000000281e+00 4.529219999999999580e+00 3.213039999999999896e+00 4.050340000000000273e+00 2.209420000000000162e+00 4.191099999999999604e+00 1.147999999999999993e-01 2.976699999999999902e-01 5.416719999999999757e+00 4.984700000000000242e-01 1.787979999999999903e+00 7.945799999999999530e-01
4.429000000000000298e-02 1.164469999999999894e+00 3.031000000000000139e+00 2.605430000000000135e+00 2.754179999999999851e+00 8.832509999999999195e+00 3.245400000000000063e+00 6.263499999999999623e-01 8.428340000000000387e+00 1.436160000000000103e+00 3.060220000000000162e+00 3.761200000000000099e-01 -1.479199999999999959e-01 1.130199999999999955e-01 5.752659999999999663e+00 3.370730000000000004e+00 3.432300000000000129e+00 1.963880000000000070e+00 3.510499999999999732e-01 7.890300000000000091e-01 7.531900000000000261e-01 1.893620000000000081e+00 4.201819999999999666e+00 6.619690000000000296e+00 2.369159999999999933e+00 2.599899999999999989e-01 4.394940000000000069e+00 1.195359999999999978e+00 2.250589999999999868e+00 4.903179999999999872e+00 3.222599999999999909e-01 3.825660000000000061e+00 8.241329999999999600e+00 3.447039999999999882e+00 2.640429999999999833e+00 4.442440000000000389e+00 9.295799999999999619e-01 3.315780000000000172e+00 2.654990000000000183e+00 9.822199999999999820e-01 1.397639999999999993e+00 7.553689999999999571e+00 2.614120000000000221e+00 9.765599999999999836e-01 1.701040000000000108e+00 3.306960000000000122e+00 2.078699999999999992e+00 6.485689999999999955e+00
1.256969999999999921e+00 2.396889999999999965e+00 8.181060000000000443e+00 3.641570000000000196e+00 2.736289999999999889e+00 9.040710000000000690e+00 3.369369999999999976e+00 2.637010000000000076e+00 6.428040000000000198e+00 4.455490000000000173e+00 3.483899999999999775e-01 3.077820000000000000e+00 -8.759000000000000119e-02 5.998599999999999488e-01 5.128379999999999939e+00 4.299559999999999604e+00 9.511199999999999655e-01 8.759200000000000319e-01 4.943299999999999916e-01 3.270070000000000032e+00 9.510899999999999910e-01 3.496980000000000199e+00 2.722500000000000142e+00 3.645570000000000199e+00 1.009919999999999929e+00 3.238459999999999894e+00 5.505469999999999864e+00 2.334420000000000162e+00 7.426599999999999868e-01 4.373009999999999842e+00 1.886779999999999902e+00 4.631399999999999961e-01 6.852140000000000342e+00 2.980259999999999909e+00 3.247199999999999864e+00 1.400449999999999973e+00 2.345369999999999955e+00 3.159399999999999986e-01 9.043810000000000571e+00 1.835139999999999993e+00 8.038800000000000390e-01 1.567379999999999995e+00 1.063229999999999897e+00 2.902579999999999938e+00 3.209639999999999826e+00 4.432629999999999626e+00 4.556999999999999940e-01 7.811119999999999841e+00
2.609589999999999854e+00 4.292580000000000062e+00 4.143360000000000376e+00 4.392030000000000101e+00 4.300119999999999720e+00 8.675539999999999807e+00 1.546299999999999897e-01 4.223830000000000418e+00 5.364160000000000039e+00 1.975829999999999975e+00 1.771800000000000042e-01 9.187060000000000670e+00 3.402950000000000141e+00 2.109090000000000131e+00 6.003400000000000070e+00 2.450940000000000119e+00 2.611419999999999852e+00 4.642800000000000260e-01 4.255399999999999738e-01 4.056510000000000282e+00 4.240499999999999825e-01 4.372560000000000002e+00 1.864049999999999985e+00 1.437750000000000083e+00 1.476990000000000025e+00 2.389359999999999928e+00 2.611870000000000136e+00 1.086099999999999982e-01 5.752000000000000168e-02 3.003120000000000012e+00 5.835500000000000131e-01 2.186360000000000081e+00 7.671380000000000088e+00 1.348249999999999948e+00 2.064639999999999809e+00 4.649329999999999963e+00 3.684579999999999966e+00 1.983440000000000092e+00 3.694350000000000023e+00 2.811729999999999841e+00 2.164039999999999964e+00 8.230140000000000455e+00 2.451010000000000133e+00 3.020700000000000052e-01 1.690520000000000023e+00 2.491150000000000198e+00 4.153990000000000293e+00 6.730030000000000179e+00
3.764559999999999906e+00 3.767349999999999977e+00 7.287099999999999689e-01 2.877439999999999998e+00 1.650689999999999991e+00 8.459329999999999572e+00 2.074510000000000076e+00 9.227600000000000247e-01 3.961139999999999883e+00 4.175300000000000122e-01 7.565699999999999648e-01 7.617740000000000400e+00 2.744339999999999780e+00 1.204229999999999912e+00 1.127029999999999976e+00 1.478529999999999900e+00 3.226170000000000204e+00 7.906109999999999971e+00 4.273170000000000357e+00 2.939060000000000006e+00 6.686049999999999827e+00 3.505770000000000053e+00 3.854569999999999830e+00 9.132680000000000575e+00 1.608970000000000011e+00 2.893860000000000099e+00 5.072090000000000209e+00 1.437079999999999913e+00 3.972649999999999793e+00 8.997199999999999642e-01 2.735650000000000137e+00 5.607199999999999962e-01 6.029799999999999827e+00 1.590529999999999999e+00 3.307789999999999786e+00 2.984129999999999949e+00 4.280369999999999564e+00 4.542410000000000281e+00 3.175040000000000084e+00 4.045359999999999623e+00 2.338360000000000216e+00 4.139739999999999753e+00 1.453899999999999915e-01 2.116599999999999870e-01 5.497359999999999580e+00 4.641100000000000225e-01 1.721649999999999903e+00 9.315799999999999637e-01
3.616789999999999949e+00 3.711190000000000211e+00 1.315850000000000009e+01 4.074819999999999887e+00 3.498029999999999973e+00 7.127710000000000434e+00 4.344199999999999728e-01 1.158460000000000045e+00 9.023669999999999192e+00 1.422129999999999894e+00 3.409580000000000055e+00 7.971000000000000085e+00 7.397599999999999731e-01 1.523810000000000109e+00 6.174199999999999910e+00 8.896899999999999809e-01 2.491029999999999855e+00 1.238529999999999909e+00 2.833390000000000075e+00 1.373459999999999903e+00 8.076879999999999171e+00 1.241800000000000015e+00 3.572090000000000209e+00 5.216809999999999725e+00 3.023109999999999964e+00 1.624870000000000037e+00 2.781199999999999783e-01 2.861749999999999794e+00 1.541369999999999907e+00 5.366089999999999804e+00 3.479060000000000041e+00 3.787879999999999914e+00 4.028970000000000162e+00 3.164810000000000123e+00 3.602790000000000159e+00 1.475270000000000081e+00 3.095209999999999795e+00 1.597760000000000069e+00 3.037659999999999805e+00 1.118829999999999991e+00 4.298299999999999899e-01 3.056999999999999995e-02 7.931099999999999817e-01 6.024599999999999955e-01 3.234080000000000066e+00 3.513469999999999871e+00 3.593570000000000153e+00 9.176299999999999457e+00
5.512599999999999723e-01 4.226500000000000257e-01 8.689750000000000085e+00 2.628270000000000106e+00 4.206999999999999851e+00 9.564500000000000668e+00 3.171900000000000275e-01 4.511289999999999800e+00 5.884039999999999715e+00 3.626799999999999802e+00 8.365299999999999958e-01 3.343099999999999961e-01 3.308870000000000200e+00 2.327459999999999862e+00 8.347490000000000521e+00 1.922800000000000065e+00 4.419819999999999638e+00 3.495999999999999996e+00 1.679429999999999978e+00 2.410860000000000003e+00 4.692179999999999573e+00 3.530209999999999848e+00 2.485100000000000087e+00 6.090469999999999828e+00 1.165399999999999991e+00 2.272839999999999971e+00 2.353479999999999794e+00 1.041630000000000056e+00 1.623699999999999866e-01 1.213410000000000100e+00 8.620200000000000085e-01 2.266039999999999832e+00 3.508700000000000152e-01 2.572239999999999860e+00 2.826000000000000179e-01 6.933550000000000324e+00 3.399480000000000057e+00 1.208949999999999969e+00 2.569199999999999928e+00 1.038240000000000052e+00 2.719279999999999919e+00 7.331550000000000011e+00 3.910060000000000091e+00 3.062679999999999847e+00 4.007360000000000255e+00 3.323719999999999786e+00 3.244749999999999801e+00 1.499470000000000081e+00
1.937189999999999968e+00 2.064659999999999940e+00 3.475569999999999826e+00 3.402730000000000032e+00 3.347129999999999939e+00 1.645669999999999966e+00 3.426400000000000001e-01 8.834300000000000486e-01 1.450029999999999930e+00 4.223069999999999879e+00 1.230560000000000098e+00 5.810599999999999987e+00 3.364400000000000168e-01 2.010460000000000136e+00 7.938380000000000436e+00 7.566699999999999537e-01 3.443439999999999834e+00 6.039019999999999833e+00 2.654450000000000198e+00 8.971400000000000485e-01 1.667329999999999979e+00 3.282280000000000086e+00 4.203909999999999592e+00 4.029779999999999696e+00 3.758809999999999985e+00 -3.160999999999999921e-02 7.946180000000000021e+00 4.317820000000000213e+00 2.069139999999999979e+00 3.613999999999999879e+00 2.871960000000000068e+00 2.279160000000000075e+00 8.193270000000000053e+00 7.933999999999999941e-01 4.242420000000000080e+00 3.753190000000000026e+00 1.874889999999999946e+00 1.141229999999999967e+00 5.962349999999999817e+00 9.798700000000000188e-01 3.137910000000000199e+00 1.305700000000000083e+00 1.277849999999999930e+00 -1.726000000000000104e-02 8.069110000000000227e+00 3.092530000000000001e+00 3.429670000000000218e+00 6.004170000000000229e+00
4.235800000000000232e+00 2.050229999999999997e+00 3.567689999999999806e+00 2.274119999999999919e+00 5.498399999999999954e-01 1.225179999999999936e+00 3.416249999999999787e+00 2.666090000000000071e+00 1.546380000000000088e+00 7.627099999999999991e-01 1.479319999999999968e+00 5.821990000000000443e+00 -7.902000000000000690e-02 3.786010000000000097e+00 5.413780000000000037e+00 3.275000000000000133e-02 6.125699999999999479e-01 5.991100000000000314e-01 2.338639999999999830e+00 7.400999999999999801e-01 4.445520000000000138e+00 4.068039999999999878e+00 2.051810000000000134e+00 8.317690000000000694e+00 1.782380000000000075e+00 2.419470000000000010e+00 8.026600000000000179e+00 1.238699999999999912e+00 2.995989999999999931e+00 1.464890000000000025e+00 1.889170000000000016e+00 3.109910000000000174e+00 3.591200000000000170e+00 4.952099999999999835e-01 2.003099999999999881e-01 2.767419999999999991e+00 2.505139999999999922e+00 4.496400000000000396e+00 8.149430000000000618e+00 8.883000000000000618e-02 4.159720000000000084e+00 8.183759999999999479e+00 3.316669999999999785e+00 1.312559999999999949e+00 6.208140000000000214e+00 2.325429999999999886e+00 3.416910000000000114e+00 6.049830000000000041e+00
3.610840000000000050e+00 2.025630000000000042e+00 3.734680000000000000e+00 3.945679999999999854e+00 4.142019999999999591e+00 7.736100000000000421e+00 1.120710000000000095e+00 2.242340000000000000e+00 7.588790000000000369e+00 8.471800000000000441e-01 3.944760000000000044e+00 4.366499999999999826e-01 3.234840000000000160e+00 1.919119999999999937e+00 8.912480000000000402e+00 1.278620000000000090e+00 1.762489999999999890e+00 1.516099999999999959e+01 3.522419999999999884e+00 2.246109999999999829e+00 6.413009999999999877e+00 2.091759999999999842e+00 -3.561000000000000276e-02 9.213300000000000267e+00 3.867929999999999868e+00 2.017929999999999779e+00 5.179000000000000270e-01 2.336609999999999854e+00 8.060000000000000497e-02 3.908310000000000173e+00 1.272650000000000059e+00 2.720709999999999962e+00 4.894110000000000404e+00 2.884220000000000006e+00 4.179160000000000430e+00 1.231389999999999985e+00 1.358499999999999985e-01 4.151690000000000325e+00 2.864679999999999893e+00 4.152800000000000047e+00 -4.159000000000000197e-02 5.346989999999999910e+00 1.892330000000000068e+00 2.627800000000000136e-01 6.710700000000000109e+00 1.590000000000000080e+00 2.109220000000000095e+00 1.404989999999999961e+00
1.991090000000000027e+00 2.107479999999999798e+00 3.492830000000000101e+00 3.410639999999999894e+00 3.350340000000000096e+00 1.506029999999999980e+00 3.147599999999999842e-01 9.197699999999999765e-01 1.445850000000000080e+00 4.232219999999999871e+00 1.285639999999999894e+00 5.819009999999999572e+00 3.289500000000000202e-01 1.980110000000000037e+00 8.052400000000000446e+00 7.192800000000000304e-01 3.414400000000000102e+00 5.959959999999999702e+00 2.708870000000000111e+00 8.869099999999999762e-01 1.613019999999999898e+00 3.318849999999999856e+00 4.259520000000000195e+00 4.122359999999999580e+00 3.779490000000000016e+00 -2.607999999999999902e-02 7.863540000000000418e+00 4.359969999999999679e+00 2.141739999999999977e+00 3.672979999999999912e+00 2.835220000000000073e+00 2.249820000000000153e+00 8.286289999999999267e+00 8.023900000000000476e-01 4.188530000000000086e+00 3.777499999999999858e+00 1.869850000000000012e+00 1.081220000000000070e+00 5.987759999999999749e+00 9.952600000000000335e-01 3.090800000000000214e+00 1.297439999999999927e+00 1.214779999999999971e+00 -2.980000000000000010e-03 7.992130000000000400e+00 3.021009999999999973e+00 3.404180000000000206e+00 6.015259999999999607e+00
7.490099999999999536e-01 1.455689999999999928e+00 1.347710000000000008e+01 3.544540000000000024e+00 2.035050000000000026e+00 1.497030000000000083e+00 -2.359999999999999945e-02 1.439900000000000069e-01 5.316180000000000128e+00 1.324680000000000080e+00 1.853229999999999933e+00 2.491629999999999789e+00 3.700200000000000156e+00 2.727320000000000189e+00 6.455259999999999998e+00 1.448159999999999892e+00 2.270570000000000199e+00 5.629999999999999893e+00 2.320500000000000007e+00 4.145950000000000024e+00 3.353149999999999853e+00 4.574130000000000251e+00 3.764089999999999936e+00 1.282999999999999939e-02 1.938330000000000108e+00 1.953040000000000109e+00 7.982020000000000337e+00 2.042019999999999946e+00 4.221440000000000303e+00 4.906400000000000206e-01 4.458309999999999995e+00 2.473419999999999952e+00 8.789609999999999701e+00 4.607149999999999856e+00 3.798729999999999940e+00 2.408259999999999845e+00 2.077910000000000146e+00 2.059199999999999919e-01 9.945650000000000546e+00 2.300399999999999778e+00 1.035599999999999993e-01 5.803869999999999862e+00 4.197379999999999889e+00 6.131499999999999728e-01 7.556350000000000122e+00 3.876240000000000130e+00 1.929179999999999895e+00 4.088799999999999990e+00
1.424220000000000041e+00 2.509930000000000216e+00 5.421050000000000146e+00 3.643240000000000034e+00 2.311620000000000008e+00 6.847409999999999997e+00 4.057940000000000325e+00 4.014350000000000307e+00 4.879109999999999836e+00 1.380069999999999908e+00 1.988900000000000112e-01 6.626920000000000144e+00 1.476300000000000112e-01 1.892870000000000053e+00 1.253609999999999891e+00 4.022090000000000387e+00 4.019750000000000156e+00 2.413749999999999840e+00 1.086680000000000090e+00 2.360609999999999875e+00 8.117240000000000677e+00 1.808939999999999992e+00 3.650399999999999756e-01 1.269120000000000026e+00 3.415929999999999911e+00 3.920770000000000088e+00 8.108219999999999317e+00 2.526479999999999837e+00 2.557900000000000063e+00 2.959499999999999909e-01 4.470279999999999809e+00 4.204489999999999839e+00 1.754220000000000113e+01 3.309540000000000148e+00 1.584079999999999933e+00 8.937839999999999563e+00 1.850789999999999935e+00 2.664320000000000022e+00 3.082489999999999952e+00 2.024220000000000130e+00 4.447900000000000187e-01 3.746980000000000199e+00 1.600060000000000038e+00 2.592499999999999805e-01 9.460929999999999396e+00 3.897089999999999943e+00 1.776240000000000041e+00 3.877979999999999983e+00
2.049999999999999878e-01 4.080199999999999938e-01 7.547699999999999854e+00 4.417300000000000004e+00 1.928799999999999959e-01 2.794200000000000017e-01 3.381240000000000023e+00 1.972229999999999928e+00 1.211649999999999894e+00 2.608969999999999789e+00 -7.825000000000000011e-02 6.325330000000000119e+00 3.638609999999999900e+00 1.936579999999999968e+00 6.176820000000000199e+00 2.447249999999999925e+00 3.991200000000000081e+00 1.459370000000000056e+00 1.472290000000000099e+00 2.579919999999999991e+00 7.957519999999999705e+00 2.357870000000000132e+00 3.821219999999999839e+00 4.114259999999999806e+00 -9.074999999999999734e-02 4.014770000000000394e+00 5.275470000000000326e+00 2.331809999999999938e+00 5.478300000000000392e-01 8.620969999999999800e+00 3.667019999999999946e+00 1.683769999999999989e+00 4.126199999999999868e+00 3.840609999999999857e+00 2.802719999999999878e+00 8.467309999999999448e+00 1.180530000000000079e+00 2.317919999999999980e+00 6.785999999999999810e-01 1.277079999999999993e+00 2.110599999999999810e+00 3.026110000000000078e+00 -2.664000000000000049e-02 3.988420000000000076e+00 2.638160000000000061e+00 1.285420000000000007e+00 1.956630000000000091e+00 5.383460000000000356e+00
1.630589999999999984e+00 2.659060000000000201e+00 5.230349999999999611e+00 4.073339999999999961e+00 2.037399999999999878e+00 6.913599999999999746e+00 3.816749999999999865e+00 2.229010000000000158e+00 4.135180000000000078e+00 2.532550000000000079e+00 3.854199999999999848e-01 6.439589999999999925e+00 1.603900000000000048e-01 4.995000000000000134e-02 4.175499999999999767e-01 2.018000000000000071e-01 3.995470000000000077e+00 2.747630000000000017e+00 4.443550000000000111e+00 4.217830000000000190e+00 7.891399999999999970e+00 2.354820000000000135e+00 9.972000000000000308e-02 1.168469999999999898e+00 3.412059999999999871e+00 2.006730000000000125e+00 9.080130000000000479e+00 1.401489999999999903e+00 2.294099999999999806e+00 7.832000000000000073e-02 3.868119999999999781e+00 2.026310000000000056e+00 1.561809999999999921e+00 2.147219999999999906e+00 4.362619999999999720e+00 8.917569999999999553e+00 1.651969999999999938e+00 2.108830000000000204e+00 2.655800000000000161e+00 2.473399999999999821e+00 4.389490000000000336e+00 3.873530000000000140e+00 1.402609999999999912e+00 2.101780000000000204e+00 7.947400000000000020e+00 3.003799999999999804e-01 1.756600000000000106e-01 5.111279999999999824e+00
3.682789999999999786e+00 3.733839999999999826e+00 8.293390000000000484e+00 1.775660000000000016e+00 1.902539999999999898e+00 8.105449999999999378e+00 7.227400000000000491e-01 2.578860000000000152e+00 1.066109999999999935e+01 4.046299999999999564e+00 4.015390000000000015e+00 2.109080000000000066e+00 3.815789999999999793e+00 3.189630000000000187e+00 1.617749999999999844e+01 3.634669999999999845e+00 1.890190000000000037e+00 3.820870000000000211e+00 4.085090000000000110e+00 1.749020000000000019e+00 6.676840000000000330e+00 9.086699999999999777e-01 1.278149999999999897e+00 1.636299999999999955e+01 1.736380000000000035e+00 1.201699999999999990e-01 3.505300000000000082e+00 1.447710000000000052e+00 2.216639999999999944e+00 4.839579999999999771e+00 4.124559999999999782e+00 2.870000000000000155e-03 4.909019999999999939e+00 1.141850000000000032e+00 2.078699999999999992e+00 2.210199999999999942e+00 1.890560000000000018e+00 1.547800000000000009e-01 6.425869999999999749e+00 1.750799999999999912e+00 1.299899999999999944e-01 9.647330000000000183e+00 3.354670000000000041e+00 1.476490000000000080e+00 2.992900000000000005e-01 1.943419999999999925e+00 3.953500000000000014e+00 8.153500000000000192e-01
3.309500000000000219e-01 2.794430000000000192e+00 5.448319999999999830e+00 9.344200000000000284e-01 3.243390000000000217e+00 1.421240000000000059e+00 1.426430000000000087e+00 5.944700000000000539e-01 5.513989999999999725e+00 5.317300000000000360e-01 1.986289999999999889e+00 3.527270000000000127e+00 3.838919999999999888e+00 5.366900000000000004e-01 5.916000000000000369e+00 4.285140000000000171e+00 4.402669999999999639e+00 3.527050000000000018e+00 3.027950000000000141e+00 1.875220000000000109e+00 3.801940000000000097e+00 1.928299999999999903e+00 3.948739999999999917e+00 3.641640000000000210e+00 2.793810000000000127e+00 4.338799999999999990e+00 8.086679999999999424e+00 4.011560000000000237e+00 1.881809999999999983e+00 7.880980000000000096e+00 2.514979999999999993e+00 2.729089999999999794e+00 5.989989999999999704e+00 4.561759999999999593e+00 1.047569999999999890e+00 1.331299999999999928e+00 2.115470000000000184e+00 9.472199999999999509e-01 1.402570000000000094e+00 1.527190000000000047e+00 1.535590000000000011e+00 7.971390000000000420e+00 4.097600000000000131e-01 3.900290000000000035e+00 7.660330000000000084e+00 3.385209999999999830e+00 3.282979999999999787e+00 1.401159999999999961e+00
-5.303000000000000075e-02 4.571559999999999846e+00 8.939920000000000755e+00 7.894700000000000051e-01 2.307269999999999932e+00 8.567080000000000695e+00 3.678869999999999862e+00 2.003169999999999895e+00 6.334459999999999980e+00 2.146840000000000082e+00 1.414060000000000095e+00 4.276060000000000194e+00 1.336969999999999992e+00 1.283179999999999987e+00 6.185520000000000351e+00 3.591000000000000192e+00 2.855519999999999836e+00 2.269449999999999967e+00 2.132400000000000129e-01 9.086300000000000487e-01 2.084540000000000060e+00 2.647190000000000154e+00 5.669800000000000395e-01 1.749020000000000019e+00 3.846999999999999975e+00 4.204039999999999999e+00 4.644169999999999909e+00 4.550900000000000389e+00 1.903639999999999999e+00 4.221610000000000085e+00 2.227869999999999795e+00 3.773330000000000073e+00 6.306619999999999671e+00 9.417699999999999960e-01 1.175189999999999957e+00 1.702720000000000056e+01 2.336809999999999832e+00 4.766299999999999981e-01 8.336249999999999716e+00 1.243759999999999977e+00 2.861149999999999860e+00 1.289439999999999920e+00 1.017749999999999932e+00 3.781390000000000029e+00 3.504519999999999857e+00 3.064490000000000158e+00 2.941230000000000011e+00 8.463879999999999626e+00