-6.860920000000000352e-01 -6.980410000000000226e-01 -6.435599999999999654e-02 -1.913945000000000007e+00 1.017089999999999939e-01 -2.868899999999999922e-02 4.590500000000000136e-02 -1.924700000000000022e-02 -3.075740000000000141e-01 1.371729999999999894e-01 -2.122950000000000115e-01 5.390110000000000179e-01 -4.101299999999999946e-01 -1.918289999999999995e-01 6.533309999999999951e-01 -5.356530000000000458e-01 1.387899999999999967e-01 -3.878849999999999798e-01 1.710400000000000115e-02 1.284369000000000094e+00 2.430175000000000196e+00 -6.606060000000000265e-01 -1.765079999999999982e+00 2.286799999999999944e-02 4.902569999999999983e-01 -7.708070000000000199e-01 -1.953956000000000026e+00 4.547499999999999876e-01 -4.394330000000000180e-01 -7.470909999999999496e-01 1.605752000000000068e+00 2.886770000000000169e-01 9.010000000000000647e-03 4.062470000000000248e-01 1.887872999999999912e+00 -2.676640000000000130e-01 -6.293200000000000183e-02 -3.921510000000000273e-01 2.270510000000000028e-01 6.617110000000000491e-01 2.371280000000000054e-01 -7.906640000000000335e-01 9.432479999999999754e-01 -8.254899999999999738e-02 5.805010000000000447e-01 -4.927880000000000038e-01 6.328859999999999486e-01 8.593099999999999350e-02
9.040580000000000283e-01 4.270490000000000119e-01 -2.777279999999999749e-01 4.055389999999999828e-01 4.891639999999999877e-01 -7.609920000000000018e-01 -8.309999999999999609e-01 -1.756250000000000033e-01 -4.787330000000000196e-01 -8.761259999999999604e-01 -2.355770000000000086e-01 -1.700250000000000095e-01 7.859930000000000527e-01 3.068609999999999949e-01 9.806200000000000472e-01 -7.759930000000000438e-01 -5.103130000000000166e-01 4.570009999999999906e-01 7.822940000000000449e-01 9.182500000000000107e-01 2.940639999999999921e-01 -5.116190000000000460e-01 -5.035730000000000484e-01 2.257079999999999920e-01 4.827119999999999744e-01 -4.445959999999999912e-01 -1.679599000000000064e+00 9.920700000000000351e-02 -3.397879999999999789e-01 -1.041849999999999998e-01 6.710660000000000514e-01 -8.249560000000000226e-01 -3.614149999999999863e-01 9.156799999999999662e-02 1.516459999999999919e+00 -3.669029999999999792e-01 -1.137853999999999921e+00 -9.735380000000000145e-01 -1.819079999999999864e-01 2.670709000000000000e+00 -3.982984000000000080e+00 2.909266999999999825e+00 -2.223800000000000082e-02 -2.001819999999999988e-01 1.129348000000000019e+00 -2.738315000000000055e+00 4.533350000000000435e+00 -1.614519000000000037e+00
-7.845590000000000064e-01 -1.067973999999999979e+00 -1.347879999999999912e-01 3.135060000000000069e-01 3.994899999999999840e-02 9.423949999999999827e-01 1.886258999999999908e+00 1.527973999999999943e+00 -2.500490000000000212e-01 -6.554269999999999818e-01 1.348546000000000022e+00 8.302650000000000308e-01 2.707129999999999814e-01 -1.341430000000000122e-01 1.529709999999999959e-01 1.155335000000000001e+00 -6.972040000000000459e-01 -8.565599999999999603e-02 -2.791459000000000135e+00 -5.624099999999999933e-02 2.978366999999999987e+00 9.261200000000000543e-01 1.291717000000000004e+00 1.252224999999999921e+00 1.485943000000000014e+00 -1.574292000000000025e+00 4.042390000000000150e-01 -4.756790000000000185e-01 1.402358999999999911e+00 -8.733480000000000132e-01 -7.982329999999999703e-01 -5.292019999999999502e-01 -2.696422999999999792e+00 -4.116999999999999826e-02 -6.045669999999999655e-01 -7.645570000000000421e-01 -5.513320000000000443e-01 -1.711979999999999891e-01 -6.300919999999999854e-01 -8.824700000000000599e-02 6.566429999999999767e-01 -9.673059999999999992e-01 -4.579600000000000337e-02 1.164219999999999977e-01 -6.807159999999999878e-01 1.940260000000000040e-01 -1.548791000000000029e+00 5.224729999999999652e-01
4.168020000000000058e-01 -4.837919999999999998e-01 5.325699999999999878e-02 5.843239999999999545e-01 -4.627709999999999879e-01 1.479983999999999966e+00 8.820289999999999520e-01 2.689679999999999849e-01 -3.979179999999999939e-01 1.149880000000000013e+00 2.160096999999999934e+00 -1.172190999999999983e+00 -6.255230000000000512e-01 1.270750999999999964e+00 -9.546909999999999563e-01 -6.933570000000000011e-01 -5.926749999999999519e-01 6.852719999999999922e-01 1.105099999999999971e-01 -4.880120000000000013e-01 1.436490000000000045e+00 1.293126999999999915e+00 1.915030999999999928e+00 9.085440000000000182e-01 -1.610076999999999980e+00 -1.635648999999999909e+00 -2.123431000000000068e+00 1.131267000000000023e+00 -2.497777999999999832e+00 8.439389999999999947e-01 -7.574039999999999662e-01 9.675789999999999669e-01 -3.748499999999999749e-02 -5.886609999999999898e-01 4.025090000000000057e-01 -7.538390000000000368e-01 -7.789890000000000425e-01 -1.443669000000000091e+00 8.208020000000000316e-01 1.271839999999999915e-01 -9.588800000000000101e-02 -1.360659999999999925e-01 -2.466780000000000084e-01 4.335870000000000002e-01 -9.545099999999999418e-02 -3.944340000000000068e-01 2.817120000000000180e-01 -5.572139999999999871e-01
9.445240000000000302e-01 -7.730399999999999772e-02 -3.529692999999999969e+00 -5.128239999999999466e-01 -1.699769999999999892e-01 5.335060000000000358e-01 -2.619920000000000027e-01 -3.073429999999999773e-01 -1.542509999999999992e-01 1.055798000000000014e+00 -1.931130000000000069e-01 -4.444529999999999870e-01 -4.974729999999999985e-01 -2.105299999999999880e-02 -4.358380000000000032e-01 -5.686290000000000511e-01 -3.987850000000000006e-01 3.424300000000000122e-01 1.122157999999999989e+00 -1.142349999999999977e+00 3.318198999999999899e+00 -4.260490000000000110e-01 1.043744999999999923e+00 1.684400000000000133e-02 1.366046000000000094e+00 -4.517950000000000021e-01 2.534460000000000046e-01 1.758160000000000001e-01 -1.363634999999999931e+00 -9.427889999999999882e-01 -1.647059000000000051e+00 7.194200000000000594e-02 1.710000000000000131e-01 -3.285339999999999927e-01 -4.141500000000000042e-02 1.285719999999999918e-01 -2.660759999999999792e-01 -7.695149999999999491e-01 2.172429999999999917e-01 1.496359999999999912e-01 2.670227000000000128e+00 1.000240000000000018e-01 -5.546039999999999859e-01 4.594059999999999810e-01 -2.646350000000000091e-01 2.492610000000000103e-01 6.909610000000000474e-01 6.903939999999999522e-01
2.410999999999999949e-02 6.064900000000000152e-02 -1.011019999999999974e-01 5.258209999999999829e-01 -1.408960999999999908e+00 -4.107804999999999929e+00 -5.177600000000000258e-02 -9.791999999999999316e-02 2.778299999999999867e-02 5.636769999999999836e-01 -1.135759999999999964e-01 -1.020458000000000087e+00 -1.466321999999999903e+00 5.011630000000000251e-01 -6.856400000000000272e-01 1.098946999999999896e+00 2.953879999999999839e-01 -3.658839999999999870e-01 -1.508009999999999906e-01 -7.686520000000000019e-01 3.449039999999999884e-01 1.022061000000000108e+00 9.670400000000000107e-01 -4.236019999999999786e-01 -3.036539999999999795e-01 -5.628640000000000310e-01 7.102579999999999449e-01 7.869400000000000006e-02 2.614469999999999850e-01 -1.807680000000000120e-01 -3.167559999999999820e-01 -1.509447999999999901e+00 3.937450000000000117e-01 -1.386848999999999998e+00 -7.577770000000000339e-01 -5.583259999999999890e-01 -1.105102999999999946e+00 9.342390000000000416e-01 1.024890999999999996e+00 1.346405000000000074e+00 8.135809999999999986e-01 7.832189999999999985e-01 5.980849999999999778e-01 5.625750000000000473e-01 1.408880000000000132e-01 -4.765389999999999904e-01 8.231180000000000163e-01 4.017894000000000077e+00
4.360510000000000219e-01 -5.884390000000000454e-01 3.047779999999999934e-01 -2.267319999999999891e-01 1.080500000000000037e-02 -3.632059999999999733e-01 -7.328900000000000414e-01 5.417790000000000106e-01 -4.935109999999999775e-01 7.617300000000000459e-02 7.676199999999999690e-01 7.268059999999999521e-01 1.218502999999999892e+00 1.644992000000000010e+00 8.152359999999999607e-01 1.011500000000000066e+00 -2.445809999999999929e-01 1.507809999999999984e-01 -1.374438999999999966e+00 -3.131149999999999767e-01 -2.006640000000000090e-01 3.941569999999999796e-01 -5.073779999999999957e-01 -6.755689999999999751e-01 4.348079999999999723e-01 -1.228026999999999980e+00 2.668848999999999805e+00 -5.711699999999999555e-01 8.206489999999999618e-01 -2.626015000000000210e+00 -1.095941000000000054e+00 4.179999999999999827e-01 1.314758000000000093e+00 7.725579999999999670e-01 -1.423071999999999893e+00 -3.166499999999999870e-01 -2.126609999999999889e-01 -2.308530000000000026e-01 -1.380255999999999927e+00 9.768899999999999806e-02 9.040620000000000323e-01 7.603200000000000236e-02 1.245530000000000026e+00 5.467300000000000493e-01 -2.973580000000000112e-01 -1.473133999999999943e+00 -1.119172000000000056e+00 2.959890000000000021e-01
-1.483250000000000124e-01 -1.106417999999999902e+00 5.111320000000000308e-01 -1.566230000000000122e-01 1.177659000000000011e+00 -1.393770000000000009e-01 -3.699299999999999811e-02 -4.046399999999999997e-01 3.064520000000000022e-01 1.149329999999999935e-01 -2.239999999999999977e-02 1.173190000000000066e-01 -2.135189999999999866e-01 -3.809370000000000256e-01 -6.173499999999999543e-01 1.434070000000000067e-01 -9.923440000000000039e-01 -1.288860000000000006e-01 -7.228800000000000503e-02 -1.809459999999999957e-01 -2.098069999999999935e-01 1.637326999999999977e+00 -1.768952999999999998e+00 -7.840970000000000439e-01 7.759599999999999831e-02 -8.620099999999999985e-02 -1.181985999999999981e+00 -8.210549999999999793e-01 6.639639999999999986e-01 1.043487999999999971e+00 -3.011010000000000075e-01 -1.972531999999999952e+00 8.031260000000000066e-01 5.909499999999999753e-01 8.627920000000000034e-01 -2.628804999999999836e+00 9.057140000000000191e-01 6.543830000000000480e-01 4.109900000000000220e-01 -6.929260000000000419e-01 2.586284000000000027e+00 3.576590000000000047e-01 -9.184940000000000326e-01 1.060697000000000001e+00 -5.877299999999999885e-02 -1.086010000000000031e-01 -9.040900000000000325e-02 2.198916000000000093e+00
1.227199999999999992e-02 9.779440000000000355e-01 -2.301189999999999902e-01 -1.929250000000000131e-01 -2.088079999999999936e-01 -6.660740000000000549e-01 5.002100000000000296e-02 2.953400000000000122e-02 5.048199999999999910e-02 -4.642099999999999699e-02 2.541740000000000110e-01 -2.788936000000000082e+00 -2.076580000000000092e-01 1.444077999999999973e+00 3.426289000000000140e+00 -9.053219999999999601e-01 5.732639999999999958e-01 -7.739179999999999948e-01 9.960830000000000517e-01 -2.951929999999999832e-01 -4.074200000000000044e-01 -4.343330000000000246e-01 -3.358019999999999894e-01 1.288775000000000004e+00 3.325179999999999803e-01 -1.795779999999999932e+00 4.877279999999999949e-01 -8.223000000000000309e-01 -3.093489999999999851e-01 -1.258990000000000109e-01 8.171829999999999927e-01 2.796989999999999754e-01 -1.058662999999999910e+00 -9.549189999999999623e-01 -3.181280000000000219e-01 -2.286620000000000041e-01 -6.692599999999999938e-02 -1.819459999999999966e-01 8.306850000000000067e-01 6.089799999999999658e-01 7.204709999999999726e-01 5.676050000000000262e-01 1.114595999999999920e+00 -5.884350000000000414e-01 -4.667229999999999990e-01 -3.008500000000000063e-01 -2.457219999999999960e-01 9.484900000000000275e-02
-1.348789000000000016e+00 -8.239619999999999722e-01 8.171650000000000302e-01 -1.455758000000000107e+00 8.112400000000000166e-02 -8.800139999999999629e-01 2.436889999999999890e-01 4.046000000000000117e-03 9.489429999999999810e-01 8.404920000000000169e-01 -4.131009999999999960e-01 -1.430299999999999905e-01 4.289180000000000215e-01 -5.997259999999999813e-01 -4.777939999999999965e-01 -5.614460000000000006e-01 -1.505700000000000094e-01 -8.430090000000000083e-01 -5.292919999999999847e-01 -1.962520000000000098e-01 3.656050000000000133e-01 -7.923249999999999460e-01 -2.985079999999999956e-01 -1.904010999999999898e+00 1.885737999999999914e+00 1.142341999999999969e+00 -1.725246999999999975e+00 1.204447999999999963e+00 -1.050659999999999927e+00 -8.972160000000000135e-01 8.156800000000000161e-02 -1.347299999999999887e-01 -2.755159999999999831e-01 -4.879260000000000264e-01 -3.941629999999999856e-01 3.765589999999999993e+00 -4.120800000000000157e-02 1.545185000000000031e+00 -2.736500000000000044e-02 7.320290000000000408e-01 3.268780000000000019e-01 1.069145000000000012e+00 3.188590000000000035e-01 2.548750000000000182e-01 -1.148570000000000008e-01 -5.189970000000000416e-01 7.072209999999999885e-01 3.216109999999999802e-01
1.012923000000000018e+00 -1.304219000000000017e+00 2.389259999999999995e-01 9.401000000000000467e-01 -1.755797000000000052e+00 -8.614000000000000129e-03 -9.422559999999999825e-01 -3.525610000000000133e-01 -2.024503999999999859e+00 -1.425510000000000110e-01 1.179019000000000039e+00 1.474585000000000035e+00 6.543900000000000272e-01 2.420704000000000189e+00 8.977979999999999849e-01 -2.722280000000000255e-01 6.394469999999999876e-01 -4.105460000000000220e-01 -1.262728000000000073e+00 -9.059650000000000203e-01 3.993129999999999735e-01 4.581589999999999829e-01 2.296199999999999908e-01 -7.353939999999999921e-01 4.582720000000000127e-01 -2.564250000000000140e-01 3.039276999999999784e+00 -1.045290999999999970e+00 -4.558170000000000277e-01 -1.455951999999999913e+00 -6.175680000000000058e-01 9.540600000000000469e-02 2.100197999999999787e+00 5.530350000000000543e-01 -7.817079999999999584e-01 -1.277600000000000069e+00 -5.563400000000000289e-02 3.999980000000000202e-01 -8.980540000000000189e-01 1.651739999999999875e-01 -1.158299999999999955e-02 2.850480000000000236e-01 9.382059999999999844e-01 9.487090000000000245e-01 -2.063124999999999876e+00 -8.420039999999999747e-01 -8.882800000000000418e-02 4.386439999999999784e-01
2.669949999999999823e-01 -4.095150000000000179e-01 -3.364070000000000116e-01 -4.041979999999999684e+00 3.573430000000000217e-01 -4.345047000000000104e+00 1.106090000000000018e+00 8.349940000000000140e-01 -1.546929999999999972e-01 3.921164000000000094e+00 -2.543369999999999798e-01 1.514810999999999908e+00 -9.577569999999999695e-01 -9.278020000000000156e-01 1.074878999999999918e+00 -1.839749999999999996e-01 1.149820000000000009e-01 4.875849999999999906e-01 -9.698219999999999619e-01 2.356570000000000054e-01 -7.940150000000000263e-01 5.329329999999999901e-01 2.447120000000000128e-01 4.865000000000000401e-03 1.248485999999999985e+00 2.224679999999999991e-01 2.169949999999999934e-01 7.465239999999999654e-01 1.088279999999999942e-01 3.266350000000000087e-01 -7.553440000000000154e-01 -1.055658999999999903e+00 7.679390000000000382e-01 -8.845100000000000184e-02 1.150563999999999920e+00 9.803429999999999644e-01 -3.791070000000000273e-01 7.017900000000000249e-01 -1.568189999999999973e+00 -1.245306999999999942e+00 -8.761520000000000419e-01 7.320500000000000618e-02 1.277241999999999988e+00 3.869389999999999774e-01 -7.924970000000000070e-01 -4.776909999999999767e-01 -8.348109999999999697e-01 2.543592999999999993e+00
-1.084764999999999979e+00 2.684739999999999904e-01 -8.953060000000000462e-01 7.637340000000000240e-01 4.757549999999999835e-01 -2.609469999999999845e-01 3.509470000000000089e-01 8.515490000000000004e-01 -4.842960000000000043e-01 -1.788005999999999984e+00 2.362190000000000123e-01 -1.325715999999999894e+00 9.517000000000000459e-02 -6.927240000000000064e-01 9.150249999999999773e-01 -1.774393000000000109e+00 -3.086550000000000127e-01 1.152814999999999923e+00 -9.995469999999999633e-01 -8.737270000000000314e-01 8.248090000000000144e-01 1.451929999999999887e-01 -8.026999999999999691e-01 8.041490000000000027e-01 2.938749999999999973e-01 3.844679999999999764e-01 3.766504999999999992e+00 1.051644999999999941e+00 -1.438887999999999945e+00 2.720819999999999905e-01 2.149060000000000137e-01 1.337866999999999917e+00 -4.170741999999999727e+00 -2.152689999999999881e-01 1.416739999999999944e-01 4.375269999999999992e-01 1.462631000000000014e+00 -2.484149999999999969e-01 4.899859999999999771e-01 6.246220000000000105e-01 -6.867849999999999788e-01 3.388379999999999725e-01 8.437710000000000488e-01 9.380840000000000289e-01 -1.479711999999999916e+00 1.548500000000000050e-02 4.178040000000000087e-01 -3.850160000000000249e-01
-5.597879999999999523e-01 2.373280000000000112e-01 1.060021000000000102e+00 6.986369999999999525e-01 -1.112443999999999988e+00 -5.135999999999999940e-03 -1.250200999999999896e+00 -2.485390000000000099e-01 3.897700000000000053e-01 6.396049999999999791e-01 -5.447260000000000435e-01 1.657859999999999889e-01 8.570500000000000340e-02 1.431818999999999953e+00 3.235810000000000075e-01 -8.836180000000000145e-01 -2.112360000000000071e-01 -6.916529999999999623e-01 4.122589999999999866e-01 5.377779999999999783e-01 -5.996139999999999803e-01 -4.841269999999999740e-01 1.635604000000000058e+00 -2.066711999999999883e+00 6.816600000000000437e-02 1.520060000000000022e-01 5.059179999999999788e-01 5.799560000000000271e-01 -3.984539999999999749e-01 -4.799700000000000077e-01 -1.085917000000000021e+00 -2.504460000000000020e-01 -1.809540000000000037e-01 3.350139999999999785e-01 7.279830000000000467e-01 -3.997229999999999950e-01 -3.387399999999999856e-01 6.920800000000000562e-02 -3.472330000000000139e-01 4.907139999999999835e-01 2.241910000000000014e-01 4.144590000000000218e-01 1.244315000000000060e+00 -1.184188000000000018e+00 5.484689999999999843e-01 4.802100000000000118e-02 -1.065882999999999914e+00 1.362991000000000064e+00
1.986179999999999890e-01 7.559730000000000061e-01 1.427137000000000100e+00 1.578619999999999912e+00 6.590979999999999617e-01 1.267159999999999953e-01 1.631048000000000053e+00 5.069230000000000125e-01 -9.236029999999999518e-01 1.323989999999999889e-01 7.260959999999999637e-01 9.424599999999999644e-01 -2.445100000000000051e-01 -2.329710000000000114e-01 -4.788160000000000194e-01 -1.109339999999999993e+00 3.612440000000000095e-01 -5.798349999999999893e-01 -1.757120000000000071e-01 -4.849749999999999894e-01 -3.390937000000000090e+00 4.190450000000000008e-01 -6.771979999999999666e-01 3.242220000000000102e-01 -1.440112000000000059e+00 -2.126208999999999794e+00 7.142730000000000468e-01 -2.268329000000000040e+00 -2.048884999999999845e+00 -1.979683000000000082e+00 8.627200000000000424e-01 -1.576295999999999919e+00 1.478745999999999894e+00 -1.155416999999999916e+00 4.843549999999999800e-01 1.234747999999999957e+00 4.803769999999999984e-01 1.511028000000000038e+00 6.842359999999999554e-01 4.884220000000000228e-01 1.312306999999999890e+00 -6.486939999999999928e-01 6.945770000000000000e-01 6.479300000000000337e-02 1.996787000000000090e+00 -9.240700000000000303e-02 7.647159999999999513e-01 -9.277570000000000539e-01
8.072999999999999621e-02 6.557720000000000216e-01 -2.230080000000000118e-01 1.226072999999999968e+00 6.611259999999999915e-01 1.053104999999999958e+00 1.877000000000000057e-01 6.435330000000000217e-01 7.974269999999999969e-01 -2.023673000000000055e+00 2.297489999999999810e+00 -1.171620000000000106e+00 4.525509999999999811e-01 9.860269999999999868e-01 -4.027780000000000249e-01 5.661380000000000301e-01 -6.250480000000000480e-01 -1.614090999999999942e+00 -8.240450000000000275e-01 -1.035223000000000004e+00 -7.658530000000000060e-01 -9.675319999999999476e-01 -8.856720000000000148e-01 -2.462419999999999887e-01 -8.731480000000000352e-01 -5.379800000000000137e-01 8.361100000000000476e-02 -4.003120000000000012e-01 6.759929999999999550e-01 -9.013679999999999470e-01 3.704350000000000143e-01 -2.260196999999999790e+00 5.902199999999999669e-01 9.148530000000000273e-01 5.165499999999999536e-01 4.379759999999999764e-01 6.324739999999999807e-01 2.152700000000000100e-02 -5.668900000000000328e-02 9.583999999999999464e-02 1.291393000000000013e+00 -7.705800000000000149e-02 -3.124580000000000135e-01 -7.592630000000000212e-01 -9.057889999999999553e-01 8.743739999999999846e-01 -1.646026999999999907e+00 3.402158000000000015e+00
-3.775910000000000100e-01 -2.305679999999999952e-01 6.268280000000000518e-01 8.244059999999999722e-01 -1.349331000000000058e+00 4.009110000000000174e-01 -7.814689999999999692e-01 -8.580919999999999659e-01 5.009919999999999929e-01 5.465280000000000138e-01 -6.907689999999999664e-01 4.583869999999999889e-01 -2.231630000000000003e-01 2.259405000000000108e+00 -5.579499999999999738e-02 -1.144968999999999903e+00 -4.787440000000000029e-01 2.971000000000000030e-02 -3.102400000000000158e-01 9.871990000000000487e-01 -1.058670000000000028e-01 -4.870720000000000049e-01 1.760625000000000107e+00 -2.771303000000000072e+00 -6.110440000000000316e-01 -4.630599999999999994e-02 7.914860000000000229e-01 4.688800000000000190e-01 -5.888189999999999813e-01 -8.922609999999999708e-01 -8.034959999999999880e-01 -3.376799999999999941e-02 -4.325410000000000088e-01 6.138890000000000180e-01 1.417068999999999912e+00 -9.220880000000000187e-01 -1.909879999999999911e-01 4.621750000000000025e-01 -5.608720000000000372e-01 5.049550000000000427e-01 8.325690000000000035e-01 4.263040000000000163e-01 1.955391000000000101e+00 -1.965657999999999905e+00 7.763919999999999710e-01 1.598300000000000068e-02 -1.476987000000000050e+00 1.729718000000000089e+00
-7.034190000000000165e-01 1.700463000000000058e+00 -9.030100000000000626e-02 -5.152139999999999498e-01 -1.345847999999999933e+00 -7.341849999999999765e-01 8.535599999999999854e-01 -3.899440000000000128e-01 -1.331383999999999901e+00 -1.073339999999999989e-01 -2.957850000000000201e-01 8.242499999999999827e-02 5.063699999999999868e-01 -1.120460999999999929e+00 4.111500000000000155e-01 -9.602429999999999577e-01 1.790480000000000127e-01 -1.007309999999999928e+00 1.131169999999999953e-01 -3.254659999999999775e-01 -1.198500000000000086e-02 -1.354608999999999952e+00 2.937359999999999971e-01 -4.883850000000000136e-01 4.208239999999999759e-01 -4.086819999999999897e-01 5.458600000000000119e-01 2.246604000000000045e+00 -1.786456999999999962e+00 1.606341000000000019e+00 -3.825560000000000072e-01 1.233146999999999993e+00 9.219270000000000520e-01 4.154129999999999767e-01 1.827504999999999935e+00 8.410779999999999923e-01 -1.180449999999999972e-01 1.032379999999999964e-01 -9.828329999999999567e-01 1.907530000000000059e-01 7.516310000000000491e-01 5.039000000000000146e-01 -4.111599999999999977e-02 -1.164787000000000017e+00 5.311919999999999975e-01 -5.641040000000000498e-01 7.486610000000000209e-01 -7.974890000000000034e-01
6.055040000000000422e-01 -6.949250000000000149e-01 4.336450000000000027e-01 -5.762950000000000017e-01 -2.599314000000000124e+00 -4.506909000000000276e+00 -2.124939999999999884e-01 7.044499999999999373e-02 7.149539999999999784e-01 -6.888700000000000379e-02 2.657930000000000015e-01 3.035289999999999933e-01 -3.603489999999999749e-01 6.137730000000000130e-01 1.958999999999999977e-02 2.800090000000000079e-01 8.596600000000000075e-02 -2.885269999999999779e-01 1.517160000000000064e+00 4.104070000000000218e-01 4.432840000000000114e-01 8.768409999999999815e-01 -9.013160000000000061e-01 -2.310480000000000034e-01 3.444519999999999804e-01 1.683227000000000029e+00 1.364503000000000021e+00 -9.405780000000000252e-01 -2.090339999999999976e-01 2.848910000000000053e-01 3.550579999999999847e-01 3.849400000000000044e-01 7.590710000000000512e-01 8.336670000000000469e-01 1.162042000000000019e+00 1.400258999999999920e+00 -5.526410000000000489e-01 2.134659999999999891e-01 -1.540705999999999909e+00 -1.612651000000000057e+00 -3.035610000000000253e-01 1.009724000000000066e+00 -1.821887999999999952e+00 -7.017039999999999944e-01 -1.840519999999999934e-01 1.333091999999999944e+00 5.197960000000000358e-01 1.779299999999999979e-02
1.266279999999999906e-01 6.956400000000000083e-02 5.381000000000000227e-01 1.010305999999999926e+00 -9.784040000000000514e-01 -3.120809999999999973e-01 1.011260000000000048e+00 -3.626269999999999771e-01 9.481709999999999861e-01 -2.395992000000000122e+00 -8.391899999999999915e-01 1.736863000000000046e+00 -2.317420000000000035e-01 1.548151999999999973e+00 3.393311999999999884e+00 -8.669729999999999936e-01 2.393876000000000115e+00 7.511170000000000346e-01 2.031799999999999995e-01 7.343849999999999545e-01 -6.881580000000000474e-01 -1.117780000000000024e-01 1.057077999999999962e+00 -9.338790000000000147e-01 2.287294999999999856e+00 2.686799999999999952e-02 -1.469831000000000110e+00 9.413300000000000001e-01 -5.840130000000000043e-01 3.930799999999999850e-01 -1.824439999999999951e-01 -4.012339999999999796e-01 -3.681537000000000059e+00 -7.455720000000000125e-01 -2.159200000000000008e-01 2.587820000000000120e-01 -1.656303999999999998e+00 -8.604020000000000001e-01 -9.481549999999999701e-01 2.985749999999999793e-01 -1.738744999999999985e+00 -6.229700000000000237e-01 -7.302500000000000657e-02 6.948619999999999797e-01 1.688159999999999938e-01 3.852550000000000141e-01 -5.442489999999999828e-01 4.683709999999999818e-01
1.832050000000000067e-01 -1.517093000000000025e+00 7.923019999999999508e-01 -2.965129000000000126e+00 6.896550000000000180e-01 -3.679873000000000172e+00 -1.962450000000000028e-01 -3.909739999999999882e-01 2.045069999999999943e-01 -1.112797000000000036e+00 -7.328510000000000302e-01 -5.544019999999999504e-01 5.560999999999999971e-02 -3.139020000000000143e-01 -9.143820000000000281e-01 1.569399999999999962e-01 1.396549000000000040e+00 -2.036610000000000087e-01 3.581999999999999768e-02 1.500990000000000102e-01 1.828809999999999880e-01 -7.490299999999999736e-02 -4.574860000000000038e-01 6.123750000000000027e-01 6.151339999999999586e-01 2.783289999999999931e-01 8.711170000000000302e-01 4.126469999999999860e-01 -1.046890000000000043e-01 6.289660000000000251e-01 -6.206409999999999982e-01 2.783039999999999958e-01 -3.854650000000000021e-01 5.357640000000000180e-01 -5.074009999999999909e-01 7.566799999999999915e-02 4.008249999999999869e-01 -3.108159999999999812e-01 2.664819999999999967e-01 2.364950000000000108e-01 6.906470000000000109e-01 -3.682570000000000010e-01 2.900005999999999862e+00 3.734729999999999994e-01 1.721435000000000048e+00 -5.627299999999999525e-01 4.781569999999999987e-01 7.503069999999999462e-01
6.433179999999999454e-01 8.847399999999999709e-02 -3.000749999999999806e-01 1.554200000000000026e-01 1.077882000000000007e+00 7.422399999999999831e-02 -4.271909999999999874e-01 -1.079393999999999965e+00 -5.403700000000000170e-01 -2.299259999999999915e-01 2.119499999999999856e-02 2.632900000000000240e-01 -1.708500000000000019e-01 1.898179999999999867e-01 7.766819999999999835e-01 -5.347229999999999484e-01 1.153523999999999994e+00 -1.048848000000000003e+00 -4.202679999999999749e-01 1.797259999999999969e-01 -6.446200000000000541e-02 -9.988650000000000029e-01 1.063000000000000056e-01 -7.134300000000000364e-02 7.395760000000000112e-01 -3.606980000000000186e-01 -1.452600000000000002e-01 1.008759999999999935e-01 -2.205820000000000003e-01 8.419090000000000185e-01 -1.661410000000000109e-01 -1.328985000000000083e+00 8.990540000000000198e-01 4.774660000000000015e-01 -3.384780000000000011e-01 -4.612820000000000253e-01 -1.586200000000000110e-02 -3.586289999999999756e-01 -8.731500000000000372e-02 -1.011660000000000059e-01 4.685119999999999840e-01 -4.289890000000000092e-01 1.857493999999999978e+00 1.483651000000000053e+00 3.772530000000000050e-01 -9.091599999999999682e-01 -1.082316000000000056e+00 -8.446900000000000241e-02
-1.818837000000000037e+00 1.381251000000000007e+00 2.339729999999999865e+00 5.522390000000000354e-01 3.751869999999999927e-01 -8.039000000000000312e-02 -7.568999999999999340e-02 -3.262309999999999932e-01 7.464809999999999501e-01 1.073674999999999935e+00 -1.419724999999999904e+00 -2.751341000000000037e+00 -3.418939999999999757e-01 -3.433419999999999805e-01 -4.569400000000000128e-01 2.824280000000000124e-01 -7.338019999999999543e-01 -8.329300000000000592e-02 -5.649910000000000210e-01 -4.248979999999999979e-01 -3.662670000000000092e-01 1.113360000000000044e-01 6.532620000000000093e-01 -7.724809999999999732e-01 1.020014999999999894e+00 -2.020917999999999992e+00 -2.308369999999999866e-01 -8.364970000000000461e-01 -1.558910000000000018e-01 2.758519999999999861e-01 1.348495999999999917e+00 1.018459000000000003e+00 6.566419999999999479e-01 -6.147449999999999859e-01 -3.943090000000000206e-01 1.868799999999999975e-02 4.302090000000000081e-01 -1.796199999999999880e-02 5.258000000000000451e-01 -4.617539999999999978e-01 1.773158999999999930e+00 -3.088870000000000227e-01 4.748850000000000016e-01 6.292410000000000503e-01 1.093049999999999994e-01 -5.788759999999999462e-01 6.518000000000000356e-03 3.779370000000000229e-01
-1.082339999999999969e-01 4.051640000000000241e-01 -2.179840000000000111e-01 -5.819659999999999833e-01 4.646310000000000162e-01 -5.354750000000000343e-01 4.644820000000000060e-01 -1.000734999999999930e+00 6.877900000000000125e-01 1.616487000000000007e+00 4.108459999999999890e-01 -2.906442999999999888e+00 -1.926709000000000005e+00 7.314640000000000031e-01 2.832054999999999989e+00 -6.074859999999999705e-01 9.027420000000000444e-01 -1.343679999999999874e-01 3.573879999999999835e-01 -9.643230000000000413e-01 -2.323169999999999957e-01 -4.804849999999999954e-01 -7.702799999999999925e-02 3.111619999999999941e-01 -1.001328999999999914e+00 -1.013509999999999966e-01 4.514750000000000152e-01 7.220600000000000629e-02 -2.429939999999999878e-01 4.265999999999999653e-02 -8.230859999999999843e-01 -5.521230000000000304e-01 -4.112990000000000257e-01 -1.735309999999999908e-01 -6.982730000000000325e-01 -4.710639999999999827e-01 1.501020000000000132e-01 1.222250999999999976e+00 2.322700000000000042e-01 3.839870000000000227e-01 1.218785000000000007e+00 -7.794999999999999846e-03 2.099925999999999959e+00 -7.062400000000000622e-02 -3.627199999999999869e-02 5.582500000000000240e-01 -1.648431999999999897e+00 3.956049999999999844e-01