-5.316192331999999965e+01
-5.491384315999999899e+01
-5.323397872999999692e+01
-5.322064961000000238e+01
-5.372425220000000223e+01
-5.376388375999999880e+01
-5.403722117000000225e+01
