6.048210000000000530e-01 -1.006366000000000094e+00 1.967511000000000010e+00 3.868150000000000199e-01 -1.572586999999999957e+00 -1.479554999999999954e+00 2.412070000000000047e-01 -7.140560000000000240e-01 -5.099970000000000336e-01 -2.440759999999999874e-01 -2.041650000000000131e-01 -1.786858000000000057e+00 1.543436999999999948e+00 -2.931900000000000062e-01 6.805790000000000450e-01 9.920571000000000694e+00 -6.612149999999999972e-01 -1.991551000000000071e+00 6.823050000000000503e-01 -1.638920000000000099e-01 1.110429000000000110e+00 -5.401930000000000343e-01 3.149140000000000272e-01 -8.835389999999999633e-01 -3.803779999999999939e-01 1.093382999999999994e+00 -1.507214999999999971e+00 -1.801782999999999912e+00 -1.291960000000000053e-01 -3.613959999999999950e-01 4.820400000000000240e-01 -5.502010000000000511e-01 1.591385000000000050e+00 2.916599999999999748e-01 6.958760000000000501e-01 8.221619999999999484e-01 -8.005590000000000206e-01 1.976814000000000071e+00 -7.591189999999999882e-01 -4.205780000000000074e-01 -3.121820000000000150e-01 -1.714489999999999903e-01 -9.521798999999999680e+00 2.490140999999999938e+00 6.122610000000000552e-01 -4.434899999999999953e-01 -9.640779999999999905e-01 2.666354000000000113e+00
1.489880000000000093e-01 7.075979999999999492e-01 -1.366529000000000105e+00 2.470219999999999916e-01 4.515649999999999942e-01 -6.041830000000000256e-01 -1.088346999999999953e+00 1.894090999999999969e+00 -2.164464999999999861e+00 -1.492866000000000026e+00 1.092940000000000023e-01 -3.458200000000000163e-02 1.219983000000000040e+00 1.043268000000000084e+00 5.039460000000000051e-01 -4.502439999999999776e-01 2.302200000000000080e-02 1.992944000000000049e+00 -8.473600000000000576e-02 6.760519999999999863e-01 -3.765426000000000162e+00 -2.909700000000000134e-02 -1.459311000000000025e+00 -1.038605000000000000e+00 2.221786999999999956e+00 -8.269600000000000284e-01 1.327715999999999896e+00 -1.513568999999999942e+00 -3.249258000000000202e+00 3.599188999999999972e+00 4.414109999999999978e-01 8.412999999999999645e-02 -9.706040000000000223e-01 1.178852999999999929e+00 6.564550000000000107e-01 1.232396999999999965e+00 5.447659999999999725e-01 -1.146697000000000077e+00 1.470468000000000108e+00 -7.855940000000000145e-01 -6.522639999999999549e-01 1.537709999999999910e-01 -1.334199999999999969e-02 2.567280000000000117e-01 4.372940000000000160e-01 -5.450159999999999449e-01 1.432285999999999948e+00 -7.733309999999999906e-01
-4.093310000000000004e-01 -5.660000000000000100e-03 2.481140000000000012e-01 6.216319999999999624e-01 2.450199999999999947e-02 -2.671330000000000093e-01 -6.028459999999999930e-01 -2.628150000000000208e-01 -1.426240000000000008e-01 3.498160000000000158e-01 7.345559999999999867e-01 2.714099999999999846e-02 -1.621701999999999977e+00 5.316915999999999976e+00 3.956270000000000064e-01 9.215901000000000565e+00 -1.631467999999999918e+00 1.089990000000000014e+00 4.647439999999999904e-01 -5.924399999999999805e-02 -6.720199999999999507e-01 -7.111000000000000654e-02 6.223379999999999468e-01 6.917440000000000255e-01 1.161537000000000042e+00 -4.011930999999999692e+00 1.591090000000000004e-01 -4.513369999999999882e-01 -4.458940000000000126e-01 -3.779810000000000114e-01 1.637232000000000021e+00 9.427370000000000472e-01 -4.488600000000000229e-02 -3.312100000000000044e-01 -2.064515000000000100e+00 3.662599999999999745e-01 -8.245777999999999608e+00 -2.884630000000000249e-01 -1.596139999999999892e+00 -5.152010000000000201e-01 2.578340000000000076e-01 2.822999999999999989e-03 8.052529999999999966e-01 1.417660000000000031e-01 1.300899999999999973e-02 -2.007600000000000051e+00 7.293399999999999883e-01 1.069679999999999936e-01
8.867880000000000207e-01 2.554290000000000171e-01 1.011439999999999978e-01 -5.087369999999999948e-01 4.848899999999999877e-01 -4.574599999999999778e-01 -4.133270000000000000e-01 4.328710000000000058e-01 1.413224000000000036e+00 -3.329050000000000065e-01 -1.350805999999999951e+00 -1.832036999999999916e+00 9.519940000000000069e-01 -1.059231000000000034e+00 -3.162299999999999833e-02 -8.945140999999999565e+00 1.912322999999999995e+00 1.193589999999999929e+00 -8.413850000000000495e-01 -5.589650000000000452e-01 1.077696999999999905e+00 1.116945999999999994e+00 -1.128490999999999911e+00 -2.079298999999999786e+00 -1.063600000000000101e+00 1.706620999999999944e+00 2.028429000000000038e+00 3.669410000000000172e-01 3.766070000000000251e-01 4.894600000000000339e-02 -2.157439999999999913e-01 -1.365601999999999983e+00 -6.569479999999999764e-01 6.720279999999999587e-01 1.224520000000000053e+00 -7.870850000000000346e-01 8.862120000000000886e+00 -1.360716000000000037e+00 5.421690000000000120e-01 -3.001780000000000004e-01 6.685769999999999769e-01 -4.118069999999999786e-01 -5.564230000000000009e-01 -1.779890000000000083e-01 -1.295719999999999927e-01 3.206229999999999913e-01 -6.003599999999999909e-02 -1.936799999999999980e-02
-9.137920000000000487e-01 2.355532999999999877e+00 -5.551739999999999453e-01 -7.417880000000000029e-01 4.885579999999999923e-01 -2.823777999999999899e+00 2.395748999999999906e+00 -1.233746000000000009e+00 -3.453697000000000017e+00 2.610476999999999936e+00 -5.692490000000000050e-01 2.250561999999999951e+00 -3.189804000000000084e+00 9.303620000000000223e-01 2.659839999999999982e-01 -3.309030000000000027e-01 -9.734199999999999797e-02 -3.469180000000000041e-01 -6.709500000000000464e-01 4.238230000000000053e-01 -3.162769999999999748e-01 -3.016889999999999850e-01 -1.437345000000000095e+00 -1.472234000000000043e+00 -2.497917000000000165e+00 -1.468204999999999982e+00 1.794643999999999906e+00 1.482801000000000036e+00 -4.093559999999999977e-01 -1.393812999999999969e+00 9.160030000000000117e-01 2.832336999999999883e+00 -2.487826000000000093e+00 1.374368999999999952e+00 6.689399999999999513e-02 1.064197000000000060e+00 1.906279999999999919e-01 -2.364879999999999871e+00 -6.218550000000000466e-01 4.583459999999999757e-01 -6.227279999999999482e-01 1.801063999999999998e+00 3.838719999999999910e-01 1.180439000000000016e+00 3.709689999999999932e-01 -1.165402999999999967e+00 -7.509399999999999409e-02 5.924152000000000307e+00
1.215187000000000017e+00 -2.933970000000000189e-01 7.229539999999999855e-01 -3.796000000000000069e-02 2.280220000000000025e-01 2.852979999999999960e-01 -1.035651000000000099e+00 1.761689999999999923e-01 -1.312205000000000066e+00 -1.574972000000000039e+00 7.373380000000000489e-01 -3.497219999999999773e-01 -6.250339999999999785e-01 -1.701743999999999923e+00 1.136187000000000058e+00 -3.602139999999999787e-01 2.298894000000000215e+00 5.716489999999999627e-01 -5.530027999999999722e+00 6.124883999999999773e+00 -4.532789999999999875e-01 -1.023146000000000111e+00 -6.587979999999999947e-01 -7.505450000000000177e-01 7.217249999999999499e-01 -1.047557999999999989e+00 9.577199999999999602e-02 -5.897890000000000077e-01 5.505170000000000341e-01 -1.771619000000000055e+00 3.206640000000000046e-01 3.124700000000000047e-02 1.471629999999999883e-01 -2.981210000000000249e-01 -1.274696000000000051e+00 6.133799999999999669e-02 1.607080000000000064e+00 6.747710000000000097e-01 -1.909200000000000008e+00 5.292467000000000255e+00 -6.297714000000000034e+00 3.578979999999999939e-01 2.028522999999999854e+00 5.393729999999999913e-01 -3.280270000000000130e-01 -1.107309999999999961e-01 -8.730899999999999772e-02 3.496338999999999864e+00
7.363600000000000145e-01 6.749669999999999837e-01 -3.043799999999999978e-02 -2.275299999999999892e-02 -9.342629999999999546e-01 -1.985932999999999948e+00 1.262030000000000096e-01 -7.096540000000000070e-01 1.183119000000000032e+00 2.041310000000000069e-01 1.236309000000000102e+00 -4.810169999999999724e-01 -5.135482999999999798e+00 4.023781999999999748e+00 -1.396328000000000014e+00 3.032880000000000020e-01 7.067959999999999798e-01 8.751980000000000315e-01 5.026380000000000292e-01 1.660693999999999892e+00 7.410799999999999610e-01 -1.739697999999999967e+00 1.097158999999999995e+00 2.279730000000000090e-01 1.344729999999999981e+00 -5.887999999999999901e-01 1.495398999999999923e+00 1.269530000000000103e-01 -4.349910000000000387e+00 -3.629399999999999987e-02 -1.185559999999999947e+00 -1.498309999999999920e-01 3.546272000000000091e+00 1.025257000000000085e+00 -2.745690000000000075e-01 1.035031000000000034e+00 3.725479999999999903e-01 -1.636813000000000073e+00 3.363700000000000023e-01 8.759670000000000512e-01 -3.417520000000000002e-01 -3.001850000000000129e+00 3.953681000000000001e+00 5.940560000000000285e-01 -7.781609999999999916e-01 -1.488261999999999974e+00 -1.008170999999999928e+00 -1.730420000000000069e+00
