5.123537851000000032e+00 0.000000000000000000e+00 0.000000000000000000e+00 2.578092220999999906e+00 4.572401956000000212e+00 0.000000000000000000e+00 4.741431699999999749e-02 1.892801259999999930e-01 8.447617626999999629e+00
5.105247806000000388e+00 0.000000000000000000e+00 0.000000000000000000e+00 2.623693757999999931e+00 4.414676486000000288e+00 0.000000000000000000e+00 2.674326999999999954e-02 1.108169100000000046e-01 8.583456020999999936e+00
5.301159020000000055e+00 0.000000000000000000e+00 0.000000000000000000e+00 2.560097417000000153e+00 4.498076794000000156e+00 0.000000000000000000e+00 1.494572839999999958e-01 1.196514520000000054e-01 8.798662151000000264e+00
5.339054852000000295e+00 0.000000000000000000e+00 0.000000000000000000e+00 2.799452177000000042e+00 4.538634674999999952e+00 0.000000000000000000e+00 7.379992900000000022e-02 -2.144221669999999969e-01 8.439336053999999976e+00
5.301530958999999932e+00 0.000000000000000000e+00 0.000000000000000000e+00 2.719858406999999811e+00 4.441354776999999920e+00 0.000000000000000000e+00 2.494415859999999929e-01 2.087879689999999899e-01 8.474739519999999970e+00
5.151783062999999885e+00 0.000000000000000000e+00 0.000000000000000000e+00 2.592304814999999873e+00 4.597608847000000054e+00 0.000000000000000000e+00 4.767570499999999878e-02 1.903235960000000115e-01 8.494187935999999439e+00
5.308891899999999886e+00 0.000000000000000000e+00 0.000000000000000000e+00 2.687254815000000185e+00 4.654056629000000278e+00 0.000000000000000000e+00 2.380927469999999935e-01 1.145935609999999966e-01 8.664199269999999231e+00
5.297304706000000252e+00 0.000000000000000000e+00 0.000000000000000000e+00 2.611264782000000118e+00 4.421128479000000056e+00 0.000000000000000000e+00 1.837615250000000089e-01 9.851823899999999357e-02 8.625369402000000463e+00
5.322609186000000214e+00 0.000000000000000000e+00 0.000000000000000000e+00 2.623738427000000151e+00 4.442247588999999941e+00 0.000000000000000000e+00 1.846393279999999915e-01 9.898884700000000481e-02 8.666571579999999386e+00
5.154121574000000372e+00 0.000000000000000000e+00 0.000000000000000000e+00 2.648811010000000188e+00 4.456939248000000298e+00 0.000000000000000000e+00 2.699928999999999871e-02 1.118777870000000063e-01 8.665627515000000614e+00
5.166919908999999755e+00 0.000000000000000000e+00 0.000000000000000000e+00 2.446787969999999923e+00 4.587217686999999877e+00 0.000000000000000000e+00 9.237046899999999672e-02 2.084325840000000041e-01 8.755170531999999284e+00
