-5.596455637999999766e+01
-5.589195581999999973e+01
-5.593712840999999969e+01
-5.631326255999999830e+01
-5.595981251999999984e+01
-5.633907228000000345e+01
-5.508901378000000193e+01
-5.656528294000000301e+01
-5.568141948000000241e+01
-5.534098188000000107e+01
-5.584134198000000282e+01
