5.677860000000000129e-01 8.108929999999999749e-01 -1.303401000000000032e+00 -2.723869999999999902e-01 -2.031949999999999867e-01 1.908333000000000057e+00 1.250618000000000007e+00 6.327700000000000546e-01 4.214019999999999988e-01 -3.088310000000000222e-01 -4.842029999999999945e-01 -3.405239999999999934e-01 -3.643060000000000187e-01 -9.505179999999999740e-01 1.945049000000000028e+00 -8.369990000000000485e-01 -1.673057000000000016e+00 -5.979109999999999703e-01 -1.739095000000000057e+00 2.165259999999999962e-01 1.238348000000000004e+00 2.756179999999999741e-01 -9.578170000000000295e-01 -5.779029999999999445e-01 -2.465179999999999871e-01 9.378100000000000325e-01 -9.189599999999999991e-01 1.538138999999999923e+00 -2.582289999999999863e-01 -8.465040000000000342e-01 4.826630000000000087e-01 -1.153164000000000078e+00 -3.692200000000000343e-02 -8.272089999999999721e-01 1.055118000000000000e+00 -5.936129999999999463e-01 -2.984866999999999937e+00 1.322295999999999916e+00 -4.228913000000000366e+00 1.579013000000000000e+00 9.376130000000000297e-01 -1.541369999999999907e+00 -2.171589999999999909e-01 1.038987000000000105e+00 6.617859999999999854e-01 2.103534999999999933e+00 -1.271830000000000016e+00 4.811103000000000129e+00
-6.172500000000000209e-02 2.962710000000000066e-01 -4.538199999999999873e-02 2.236799999999999899e-02 7.229170000000000318e-01 -1.162968999999999919e+00 -1.711959000000000009e+00 -1.337259999999999893e+00 -6.245650000000000368e-01 2.127870000000000039e-01 -1.642651000000000083e+00 1.258799999999999919e-01 -5.386220000000000452e-01 -1.231479999999999908e+00 2.173209999999999864e-01 -3.557879999999999932e-01 -1.326472000000000095e+00 -1.117218000000000044e+00 2.708920000000000217e-01 1.352980000000000071e+00 4.422980000000000245e-01 1.378160999999999969e+00 1.573560999999999988e+00 5.808280000000000109e-01 -4.117069999999999896e-01 -1.333769999999999956e-01 3.728219999999999867e-01 1.145110000000000017e-01 3.741499999999999687e-02 1.436500000000000110e+00 1.551093999999999973e+00 9.895939999999999737e-01 -9.769539999999999891e-01 -8.203449999999999909e-01 8.378719999999999501e-01 -3.906540000000000012e-01 -1.420099999999999973e-01 9.446510000000000185e-01 7.033270000000000355e-01 3.864850000000000230e-01 2.752778999999999865e+00 -4.256018000000000079e+00 5.462669999999999471e-01 -3.650710999999999817e+00 4.169379000000000168e+00 -4.404100000000000237e-01 -1.860890000000000044e-01 5.254029999999999534e-01
8.506399999999999517e-01 -4.145360000000000156e-01 -2.996639999999999859e-01 5.270000000000000240e-01 6.244840000000000391e-01 -2.899419999999999775e-01 -5.360199999999999687e-02 6.907250000000000334e-01 1.230202999999999935e+00 -3.387820000000000276e-01 3.869600000000000262e-01 2.836199999999999832e-02 8.558759999999999701e-01 1.144173000000000107e+00 8.831520000000000481e-01 -7.151200000000000612e-02 7.748699999999999477e-01 -8.476000000000000201e-02 3.146919000000000022e+00 -4.917281000000000013e+00 -6.368610000000000104e-01 -1.725985000000000102e+00 -1.172379999999999950e-01 -3.183300000000000018e-02 -3.591030000000000055e-01 -6.824639999999999596e-01 -3.173690000000000122e-01 -2.623496999999999968e+00 5.298891000000000240e+00 -4.282299999999999995e-01 -1.733709999999999973e-01 -4.251770000000000271e-01 4.954520000000000035e-01 -6.506509999999999794e-01 -8.555019999999999847e-01 7.427200000000000468e-01 -5.284400000000000208e-01 -1.057809999999999917e+00 -6.029400000000000037e-02 9.454489999999999839e-01 -4.173870000000000080e-01 2.685469999999999802e-01 5.030339999999999812e-01 -1.791190000000000004e-01 -1.260197999999999929e+00 -3.039749999999999952e-01 1.464110000000000134e-01 -2.392869999999999997e-01
3.833829999999999738e-01 1.760319999999999940e-01 -1.264389999999999958e-01 -5.745200000000000307e-01 -2.108639999999999959e-01 5.768739999999999979e-01 8.797850000000000392e-01 1.602580000000000116e-01 -3.752090000000000147e-01 -2.144840000000000080e-01 -1.053489999999999982e-01 -5.037620000000000431e-01 -7.268820000000000281e-01 -1.467509999999999926e-01 -4.525060000000000193e-01 4.470370000000000177e-01 7.297660000000000258e-01 -7.176700000000000301e-01 -2.024499999999999911e-01 7.372700000000000087e-02 1.930066000000000059e+00 3.105398000000000103e+00 -4.144752999999999687e+00 -1.128350000000000047e-01 -2.299958999999999865e+00 4.140661999999999843e+00 -1.499900000000000122e-01 7.633029999999999538e-01 8.411119999999999708e-01 -5.992549999999999821e-01 9.079639999999999933e-01 -1.384109999999999951e+00 -2.959890000000000021e-01 -1.634539999999999882e-01 -3.704859999999999820e-01 7.556420000000000359e-01 6.019170000000000353e-01 -1.199500000000000045e-02 -1.301887000000000016e+00 -9.726590000000000513e-01 4.341340000000000199e-01 2.396230000000000027e-01 -1.054038000000000030e+00 4.311719999999999997e-01 -6.007010000000000405e-01 -8.803400000000000114e-01 -6.125570000000000181e-01 1.734037000000000051e+00
-1.925313000000000052e+00 8.734180000000000277e-01 7.450740000000000141e-01 8.648430000000000284e-01 -5.345339999999999536e-01 -2.137868000000000102e+00 -5.161500000000000116e-02 2.684779999999999944e-01 1.066113000000000088e+00 -3.082297000000000065e+00 3.816822000000000159e+00 2.447110000000000118e-01 4.932940000000000103e-01 -1.108176000000000050e+00 -2.561000000000000082e-02 3.538279999999999759e-01 -6.204300000000000370e-01 -1.094589000000000034e+00 6.170809999999999906e-01 2.345520000000000105e-01 3.350130000000000052e-01 3.000112999999999808e+00 -3.678608999999999796e+00 4.868850000000000122e-01 -4.014650000000000163e-01 4.743390000000000106e-01 -1.153853000000000018e+00 2.030742000000000047e+00 5.868999999999999773e-01 4.826110000000000122e-01 8.850860000000000394e-01 -9.814859999999999696e-01 -4.032220000000000248e-01 -1.109174000000000104e+00 -6.837259999999999449e-01 3.671800000000000064e-02 -5.060400000000000315e-02 4.770320000000000116e-01 6.211219999999999519e-01 3.490200000000000247e-02 3.405279999999999974e-01 6.456709999999999949e-01 -1.263738999999999946e+00 5.046589999999999687e-01 -1.623090000000000088e-01 -3.956830000000000069e-01 3.023199999999999846e-02 3.135330000000000061e-01
-4.305309999999999970e-01 2.883419999999999872e-01 -2.661800000000000277e-01 -6.561609999999999943e-01 1.767906999999999895e+00 4.426181999999999839e+00 -3.534749999999999837e-01 7.463999999999999801e-02 -5.636640000000000539e-01 2.968999999999999972e-01 -7.640019999999999589e-01 5.555959999999999788e-01 1.382190999999999947e+00 -3.585109999999999797e+00 -4.073106000000000115e+00 -6.051800000000000235e-02 6.938199999999999923e-01 6.715400000000000535e-02 5.361099999999999893e-02 7.926889999999999770e-01 -5.475640000000000507e-01 -5.337749999999999995e-01 1.885570000000000024e-01 -9.341549999999999576e-01 7.701099999999999612e-02 -4.052749999999999964e-01 9.417799999999999505e-01 3.240580000000000127e-01 -3.108940000000000037e-01 -6.492999999999999640e-03 -5.316990000000000327e-01 -4.718089999999999784e-01 -1.068440000000000056e+00 -6.062720000000000331e-01 1.176939999999999931e-01 7.074070000000000080e-01 -5.599739999999999718e-01 1.038345000000000073e+00 -4.883259999999999823e-01 5.548739999999999783e-01 -1.354972999999999983e+00 5.396239999999999926e-01 6.921150000000000357e-01 5.717820000000000125e-01 -9.479899999999999993e-01 3.516440000000000121e-01 1.358287000000000022e+00 1.658174000000000037e+00
-5.572810000000000263e-01 6.376270000000000548e-01 -9.081829999999999625e-01 -1.481979999999999964e-01 -2.526030000000000220e-01 5.840760000000000396e-01 1.496879999999999877e-01 5.429270000000000485e-01 1.048064000000000107e+00 -9.400260000000000282e-01 -1.258353000000000055e+00 -5.394569999999999643e-01 3.684740000000000237e-01 2.600230000000000041e-01 -2.726239999999999775e-01 5.359739999999999505e-01 -3.004558999999999980e+00 4.479236000000000217e+00 4.620170000000000110e-01 2.871319999999999983e-01 -5.055599999999999677e-02 -4.158080000000000109e-01 -4.774789999999999868e-01 -2.191230000000000122e-01 -5.002000000000000370e-03 -1.820579999999999976e-01 3.693029999999999924e-01 5.365900000000000114e-01 -2.245080000000000131e-01 2.229394999999999794e+00 2.046540000000000026e-01 1.215548000000000073e+00 -2.286920000000000064e-01 -2.666399999999999881e-01 -1.021949999999999942e-01 9.873979999999999979e-01 4.848830000000000084e-01 2.359659999999999869e+00 -5.640480000000000160e+00 -1.037347999999999937e+00 1.426979999999999915e-01 -2.990120000000000000e-01 2.560479999999999978e-01 2.166289999999999882e-01 -1.570853000000000055e+00 3.719759999999999733e-01 -1.604889999999999928e-01 3.150900000000000228e-02
-3.074910000000000143e-01 4.380274000000000001e+00 -4.430787999999999727e+00 -7.633560000000000345e-01 4.391579999999999928e-01 -2.611990000000000145e-01 -1.339509999999999867e-01 1.835070000000000034e-01 2.353290000000000104e-01 -5.537290000000000267e-01 -5.337530000000000330e-01 3.944070000000000076e-01 3.070600000000000065e-02 -1.162495000000000056e+00 1.741659999999999986e+00 -5.553460000000000063e-01 1.286831999999999976e+00 -1.253177999999999903e+00 8.556500000000000217e-02 -6.799560000000000048e-01 3.408089999999999731e-01 4.387579999999999814e-01 4.368139999999999801e-01 -1.759000000000000008e-01 1.717720000000000080e-01 -1.745869999999999922e-01 5.447140000000000315e-01 8.631579999999999808e-01 -9.138519999999999976e-01 -1.160635000000000083e+00 6.167599999999999749e-01 -3.446457999999999799e+00 4.783775999999999584e+00 8.367040000000000033e-01 -2.036239999999999994e-01 -9.388940000000000063e-01 -4.068930000000000047e-01 -2.350329999999999919e-01 5.709370000000000278e-01 -1.336200000000000061e-02 8.568930000000000158e-01 -7.549280000000000435e-01 1.896500000000000130e-01 -6.677779999999999827e-01 1.249347999999999903e+00 -4.989450000000000274e-01 4.340570000000000261e-01 -8.854579999999999673e-01
9.912619999999999765e-01 -6.124509999999999676e-01 4.044749999999999734e-01 6.665910000000000446e-01 -5.750950000000000228e-01 -5.972439999999999971e-01 -2.057763000000000009e+00 -4.989879999999999871e-01 -1.444290000000000018e-01 2.037970000000000059e-01 -6.340729999999999977e-01 -8.612309999999999688e-01 6.016930000000000334e-01 -6.944100000000000272e-02 2.063725999999999949e+00 -7.619660000000000322e-01 1.752081000000000000e+00 -6.136080000000000423e-01 2.515859999999999763e-01 1.540921999999999903e+00 -9.136999999999999289e-03 6.060870000000000424e-01 -9.396699999999999497e-02 3.607389999999999763e-01 1.080999999999999930e-03 -5.997299999999999853e-02 -6.433929999999999927e-01 -1.373934999999999906e+00 -3.566739999999999911e-01 1.224309999999999982e-01 5.510990000000000055e-01 -1.018639999999999990e+00 4.409049999999999914e-01 5.261890000000000178e-01 1.576101999999999892e+00 -5.827820000000000222e-01 3.029120000000000146e-01 -6.796429999999999971e-01 3.023230000000000084e-01 -7.022000000000000464e-02 3.612696999999999825e+00 4.125570999999999877e+00 -1.848869999999999958e-01 -1.283809999999999896e+00 1.202287000000000106e+00 -2.535270000000000024e-01 -2.599047999999999803e+00 -5.570632999999999946e+00
-9.314740000000000242e-01 1.284990000000000021e-01 7.888169999999999904e-01 -1.038798000000000110e+00 -1.163958000000000048e+00 -8.958599999999999897e-02 3.210611000000000104e+00 -2.020738999999999841e+00 -5.138384000000000285e+00 -7.401299999999999546e-01 -5.021699999999999775e-02 -1.209839999999999943e-01 -2.145579999999999987e-01 -2.816139999999999755e-01 5.245859999999999967e-01 -2.296949999999999825e+00 2.856320000000000192e+00 5.103182999999999581e+00 8.735380000000000367e-01 -1.221549999999999914e+00 1.020670000000000049e-01 1.619429000000000007e+00 -5.610899999999999915e-02 -5.285370000000000346e-01 3.196330000000000005e-01 -1.140338000000000074e+00 3.523100000000000120e-01 2.162870999999999988e+00 2.010574000000000083e+00 -2.027696000000000165e+00 -3.945640000000000258e-01 -3.562250000000000139e-01 -9.512129999999999752e-01 2.047450000000000103e-01 1.571517000000000053e+00 3.123909999999999743e-01 -7.038109999999999644e-01 -1.346697999999999951e+00 7.100079999999999725e-01 -8.883140000000000480e-01 1.004674999999999985e+00 -4.167699999999999738e-01 -3.373929999999999985e-01 1.079255000000000075e+00 -7.366129999999999622e-01 -8.448350000000000026e-01 -1.013390000000000013e+00 2.116420000000000190e+00
7.328970000000000207e-01 6.900509999999999700e-01 -1.894699999999999995e-01 4.566959999999999908e-01 9.276399999999999924e-02 -2.196950000000000014e-01 -8.944170000000000176e-01 6.689739999999999576e-01 8.232850000000000446e-01 2.641800000000000051e-02 1.698890000000000122e-01 9.793100000000000416e-02 2.416210000000000024e-01 -5.467929999999999735e-01 3.265100000000000224e-01 1.390706999999999915e+00 -5.725399999999999934e-02 -8.335869999999999669e-01 3.880779999999999785e-01 1.007427999999999990e+00 -4.232239999999999891e-01 -3.534539999999999904e-01 -1.240048999999999957e+00 7.867680000000000229e-01 -4.516859999999999764e-01 -2.947600000000000220e-01 -7.701799999999999757e-01 -5.993500000000000494e-01 -2.495759999999999923e-01 6.786870000000000402e-01 -1.305260000000000031e-01 -5.122269999999999879e-01 -8.743859999999999966e-01 -1.974569999999999936e-01 -2.116609999999999880e-01 -1.355220000000000036e-01 2.623749000000000109e+00 -2.877715999999999941e+00 -5.258810999999999680e+00 -2.707955000000000112e+00 4.933370000000000255e-01 1.024100000000000010e-01 -5.102839999999999598e-01 3.079581999999999820e+00 5.298862999999999879e+00 -1.503799999999999928e-02 -2.119910000000000128e-01 5.904209999999999736e-01
