5.743779174000000154e+00 0.000000000000000000e+00 0.000000000000000000e+00 -9.889999999999999754e-07 5.743780349999999757e+00 0.000000000000000000e+00 -7.910000000000000288e-07 -2.259999999999999961e-06 5.743775614999999668e+00
5.889884587000000060e+00 0.000000000000000000e+00 0.000000000000000000e+00 2.973421999999999871e-03 5.801422018000000236e+00 0.000000000000000000e+00 1.201673159999999962e-01 -2.715658099999999908e-02 5.730859816999999801e+00
5.886232027000000144e+00 0.000000000000000000e+00 0.000000000000000000e+00 2.971577999999999893e-03 5.797824316999999894e+00 0.000000000000000000e+00 1.200927950000000022e-01 -2.713973999999999900e-02 5.727305874999999880e+00
5.768138944999999573e+00 0.000000000000000000e+00 0.000000000000000000e+00 4.032048099999999830e-02 5.986357255999999794e+00 0.000000000000000000e+00 1.356214350000000124e-01 1.577106699999999972e-02 5.833797711999999969e+00
5.695954552999999976e+00 0.000000000000000000e+00 0.000000000000000000e+00 -5.901799199999999829e-02 5.867546536999999951e+00 0.000000000000000000e+00 -4.859649700000000239e-02 -1.552913469999999962e-01 5.892114435999999955e+00
5.912559974999999746e+00 0.000000000000000000e+00 0.000000000000000000e+00 2.984870000000000145e-03 5.823756835000000187e+00 0.000000000000000000e+00 1.206299460000000018e-01 -2.726113000000000147e-02 5.752922977999999965e+00
5.643791382999999939e+00 0.000000000000000000e+00 0.000000000000000000e+00 -5.847750899999999696e-02 5.813811938999999818e+00 0.000000000000000000e+00 -4.815145400000000325e-02 -1.538691990000000120e-01 5.838154847000000203e+00
5.785121762000000167e+00 0.000000000000000000e+00 0.000000000000000000e+00 -9.960000000000000777e-07 5.785122947999999710e+00 0.000000000000000000e+00 -7.959999999999999809e-07 -2.276999999999999968e-06 5.785118178000000277e+00
5.831239144000000429e+00 0.000000000000000000e+00 0.000000000000000000e+00 1.835659400000000038e-02 5.819288816000000253e+00 0.000000000000000000e+00 -1.321613630000000039e-01 9.708725599999999678e-02 5.959250963999999762e+00
5.923534308999999887e+00 0.000000000000000000e+00 0.000000000000000000e+00 2.990410000000000203e-03 5.834566341000000378e+00 0.000000000000000000e+00 1.208538479999999998e-01 -2.731172999999999934e-02 5.763601009000000275e+00
5.840882126000000341e+00 0.000000000000000000e+00 0.000000000000000000e+00 1.838694999999999913e-02 5.828912036000000185e+00 0.000000000000000000e+00 -1.323799149999999869e-01 9.724780700000000555e-02 5.969105636000000104e+00
5.709106964000000062e+00 0.000000000000000000e+00 0.000000000000000000e+00 -5.915426900000000238e-02 5.881095166999999790e+00 0.000000000000000000e+00 -4.870871100000000176e-02 -1.556499269999999935e-01 5.905719795999999633e+00
5.804755086000000119e+00 0.000000000000000000e+00 0.000000000000000000e+00 1.827322300000000163e-02 5.792859033000000046e+00 0.000000000000000000e+00 -1.315611180000000047e-01 9.664630999999999916e-02 5.932185506999999802e+00
5.680591149999999701e+00 0.000000000000000000e+00 0.000000000000000000e+00 3.970850299999999916e-02 5.895497381000000203e+00 0.000000000000000000e+00 1.335629969999999889e-01 1.553169599999999935e-02 5.745253359000000337e+00
5.787215374999999717e+00 0.000000000000000000e+00 0.000000000000000000e+00 -9.960000000000000777e-07 5.787216561000000148e+00 0.000000000000000000e+00 -7.969999999999999502e-07 -2.276999999999999968e-06 5.787211789999999745e+00
5.789408103999999611e+00 0.000000000000000000e+00 0.000000000000000000e+00 1.822491099999999989e-02 5.777543503000000413e+00 0.000000000000000000e+00 -1.312132890000000107e-01 9.639079000000000397e-02 5.916501616999999769e+00
5.716089400999999626e+00 0.000000000000000000e+00 0.000000000000000000e+00 1.799410499999999982e-02 5.704375055999999944e+00 0.000000000000000000e+00 -1.295515660000000069e-01 9.517006999999999550e-02 5.841573365000000351e+00
5.902498838999999720e+00 0.000000000000000000e+00 0.000000000000000000e+00 -1.016000000000000098e-06 5.902500048000000277e+00 0.000000000000000000e+00 -8.129999999999999876e-07 -2.323000000000000036e-06 5.902495180999999924e+00
5.854119448999999697e+00 0.000000000000000000e+00 0.000000000000000000e+00 -1.007999999999999921e-06 5.854120648000000315e+00 0.000000000000000000e+00 -8.059999999999999911e-07 -2.303999999999999879e-06 5.854115821999999802e+00
5.748752345999999847e+00 0.000000000000000000e+00 0.000000000000000000e+00 1.809692800000000171e-02 5.736971063000000370e+00 0.000000000000000000e+00 -1.302918520000000135e-01 9.571389199999999486e-02 5.874953352000000351e+00
5.714448177000000406e+00 0.000000000000000000e+00 0.000000000000000000e+00 -5.920961200000000174e-02 5.886597285999999762e+00 0.000000000000000000e+00 -4.875428099999999654e-02 -1.557955470000000064e-01 5.911244951999999664e+00
5.806213747000000147e+00 0.000000000000000000e+00 0.000000000000000000e+00 -9.990000000000000914e-07 5.806214935999999938e+00 0.000000000000000000e+00 -7.989999999999999945e-07 -2.285000000000000145e-06 5.806210148999999987e+00
5.658473951000000390e+00 0.000000000000000000e+00 0.000000000000000000e+00 1.781273300000000073e-02 5.646877681000000315e+00 0.000000000000000000e+00 -1.282457489999999922e-01 9.421080099999999680e-02 5.782693096000000033e+00
5.738310273999999822e+00 0.000000000000000000e+00 0.000000000000000000e+00 4.011197200000000268e-02 5.955400115999999855e+00 0.000000000000000000e+00 1.349200979999999883e-01 1.568951000000000026e-02 5.803629500000000441e+00
5.825325513000000122e+00 0.000000000000000000e+00 0.000000000000000000e+00 -1.002999999999999968e-06 5.825326707000000326e+00 0.000000000000000000e+00 -8.020000000000000082e-07 -2.291999999999999824e-06 5.825321903999999940e+00
5.843384455999999894e+00 0.000000000000000000e+00 0.000000000000000000e+00 1.839482699999999901e-02 5.831409237999999995e+00 0.000000000000000000e+00 -1.324366290000000002e-01 9.728947000000000289e-02 5.971662899000000024e+00
5.752513373000000207e+00 0.000000000000000000e+00 0.000000000000000000e+00 4.021125500000000130e-02 5.970140542000000217e+00 0.000000000000000000e+00 1.352540439999999899e-01 1.572834399999999827e-02 5.817994274000000132e+00
5.660691682999999585e+00 0.000000000000000000e+00 0.000000000000000000e+00 3.956940199999999658e-02 5.874845084999999578e+00 0.000000000000000000e+00 1.330951170000000128e-01 1.547728800000000050e-02 5.725127376999999740e+00
5.738328351999999910e+00 0.000000000000000000e+00 0.000000000000000000e+00 1.806411299999999970e-02 5.726568431999999653e+00 0.000000000000000000e+00 -1.300555979999999945e-01 9.554033800000000243e-02 5.864300522999999821e+00
5.902188162999999932e+00 0.000000000000000000e+00 0.000000000000000000e+00 2.979634000000000102e-03 5.813540801000000258e+00 0.000000000000000000e+00 1.204183370000000003e-01 -2.721330900000000150e-02 5.742831201000000441e+00
5.639132716999999850e+00 0.000000000000000000e+00 0.000000000000000000e+00 1.775184800000000063e-02 5.627576085000000283e+00 0.000000000000000000e+00 -1.278073919999999919e-01 9.388877900000000554e-02 5.762927269000000408e+00
5.726859243999999904e+00 0.000000000000000000e+00 0.000000000000000000e+00 4.003192700000000187e-02 5.943515875000000115e+00 0.000000000000000000e+00 1.346508600000000111e-01 1.565820100000000006e-02 5.792048123999999909e+00
5.867808296999999840e+00 0.000000000000000000e+00 0.000000000000000000e+00 1.847171300000000072e-02 5.855783026000000113e+00 0.000000000000000000e+00 -1.329901800000000134e-01 9.769611500000000004e-02 5.996622911000000222e+00
5.898802136999999668e+00 0.000000000000000000e+00 0.000000000000000000e+00 -1.015000000000000023e-06 5.898803346000000225e+00 0.000000000000000000e+00 -8.120000000000000183e-07 -2.320999999999999885e-06 5.898798482000000121e+00
5.834180603000000076e+00 0.000000000000000000e+00 0.000000000000000000e+00 -1.004000000000000044e-06 5.834181798000000363e+00 0.000000000000000000e+00 -8.029999999999999774e-07 -2.296000000000000125e-06 5.834176988000000286e+00
5.781381603999999896e+00 0.000000000000000000e+00 0.000000000000000000e+00 -9.950000000000000026e-07 5.781382788000000161e+00 0.000000000000000000e+00 -7.959999999999999809e-07 -2.274999999999999818e-06 5.781378021000000089e+00
5.815556972000000435e+00 0.000000000000000000e+00 0.000000000000000000e+00 1.830722699999999883e-02 5.803638782000000162e+00 0.000000000000000000e+00 -1.318059360000000124e-01 9.682615599999999656e-02 5.943224523999999676e+00
5.808654532000000259e+00 0.000000000000000000e+00 0.000000000000000000e+00 1.828549800000000072e-02 5.796750486999999730e+00 0.000000000000000000e+00 -1.316494970000000042e-01 9.671123399999999315e-02 5.936170556000000431e+00
5.754018270000000435e+00 0.000000000000000000e+00 0.000000000000000000e+00 1.811350499999999850e-02 5.742226194999999755e+00 0.000000000000000000e+00 -1.304112000000000049e-01 9.580156700000000414e-02 5.880334878000000209e+00
5.907795252999999747e+00 0.000000000000000000e+00 0.000000000000000000e+00 2.982464000000000209e-03 5.819063675999999852e+00 0.000000000000000000e+00 1.205327350000000020e-01 -2.723916200000000079e-02 5.748286901000000171e+00
5.922714032000000017e+00 0.000000000000000000e+00 0.000000000000000000e+00 2.989995999999999973e-03 5.833758384000000241e+00 0.000000000000000000e+00 1.208371129999999960e-01 -2.730794799999999856e-02 5.762802878999999656e+00
5.834484452999999959e+00 0.000000000000000000e+00 0.000000000000000000e+00 1.836681000000000077e-02 5.822527473000000064e+00 0.000000000000000000e+00 -1.322349160000000079e-01 9.714128900000000566e-02 5.962567514999999929e+00
5.713671328000000216e+00 0.000000000000000000e+00 0.000000000000000000e+00 1.798649299999999923e-02 5.701961939000000257e+00 0.000000000000000000e+00 -1.294967619999999875e-01 9.512980999999999521e-02 5.839102208999999988e+00
5.858811812999999979e+00 0.000000000000000000e+00 0.000000000000000000e+00 -1.008999999999999996e-06 5.858813013999999875e+00 0.000000000000000000e+00 -8.069999999999999603e-07 -2.306000000000000029e-06 5.858808182999999836e+00
5.832633236999999582e+00 0.000000000000000000e+00 0.000000000000000000e+00 -1.004000000000000044e-06 5.832634431999999869e+00 0.000000000000000000e+00 -8.029999999999999774e-07 -2.295000000000000050e-06 5.832629622999999874e+00
5.908442473000000028e+00 0.000000000000000000e+00 0.000000000000000000e+00 2.982790999999999828e-03 5.819701174999999616e+00 0.000000000000000000e+00 1.205459400000000042e-01 -2.724214599999999833e-02 5.748916646999999713e+00
5.729807107000000066e+00 0.000000000000000000e+00 0.000000000000000000e+00 -5.936875099999999739e-02 5.902418906000000298e+00 0.000000000000000000e+00 -4.888531900000000346e-02 -1.562142840000000088e-01 5.927132819999999747e+00
5.693568695999999818e+00 0.000000000000000000e+00 0.000000000000000000e+00 3.979921899999999679e-02 5.908965890000000165e+00 0.000000000000000000e+00 1.338681270000000034e-01 1.556717900000000043e-02 5.758378629000000082e+00
5.929323046999999569e+00 0.000000000000000000e+00 0.000000000000000000e+00 -1.021000000000000050e-06 5.929324261999999734e+00 0.000000000000000000e+00 -8.160000000000000012e-07 -2.332999999999999940e-06 5.929319373000000226e+00
5.759218917000000104e+00 0.000000000000000000e+00 0.000000000000000000e+00 4.025812799999999719e-02 5.977099768000000424e+00 0.000000000000000000e+00 1.354117059999999928e-01 1.574667800000000006e-02 5.824776146999999682e+00
5.748531827999999955e+00 0.000000000000000000e+00 0.000000000000000000e+00 -5.956276600000000310e-02 5.921707714000000067e+00 0.000000000000000000e+00 -4.904507400000000100e-02 -1.567247850000000053e-01 5.946502391000000109e+00
5.769699228000000346e+00 0.000000000000000000e+00 0.000000000000000000e+00 1.816286799999999868e-02 5.757875016999999929e+00 0.000000000000000000e+00 -1.307665990000000111e-01 9.606264700000000101e-02 5.896360075999999673e+00
5.802108911999999563e+00 0.000000000000000000e+00 0.000000000000000000e+00 4.055793800000000171e-02 6.021612363000000023e+00 0.000000000000000000e+00 1.364201419999999942e-01 1.586394600000000030e-02 5.868154359000000042e+00
5.833054891999999825e+00 0.000000000000000000e+00 0.000000000000000000e+00 -1.004000000000000044e-06 5.833056087000000112e+00 0.000000000000000000e+00 -8.029999999999999774e-07 -2.295000000000000050e-06 5.833051278000000117e+00
5.716141003999999803e+00 0.000000000000000000e+00 0.000000000000000000e+00 3.995700399999999736e-02 5.932392145999999755e+00 0.000000000000000000e+00 1.343988510000000136e-01 1.562889599999999976e-02 5.781207878000000022e+00
5.886808199999999935e+00 0.000000000000000000e+00 0.000000000000000000e+00 2.971868999999999813e-03 5.798391836000000410e+00 0.000000000000000000e+00 1.201045500000000044e-01 -2.714239599999999919e-02 5.727866491000000337e+00
5.678927878999999734e+00 0.000000000000000000e+00 0.000000000000000000e+00 -5.884157200000000171e-02 5.850006930000000160e+00 0.000000000000000000e+00 -4.845122999999999791e-02 -1.548271410000000015e-01 5.874501389999999823e+00
5.735441898000000371e+00 0.000000000000000000e+00 0.000000000000000000e+00 -9.870000000000000369e-07 5.735443072999999892e+00 0.000000000000000000e+00 -7.899999999999999537e-07 -2.257000000000000159e-06 5.735438345000000382e+00
5.698903246999999617e+00 0.000000000000000000e+00 0.000000000000000000e+00 -5.904854500000000089e-02 5.870584060999999743e+00 0.000000000000000000e+00 -4.862165499999999974e-02 -1.553717380000000092e-01 5.895164678999999630e+00
5.789615726000000073e+00 0.000000000000000000e+00 0.000000000000000000e+00 1.822556399999999965e-02 5.777750699000000267e+00 0.000000000000000000e+00 -1.312179940000000045e-01 9.639424700000000235e-02 5.916713795999999803e+00
5.726267149999999972e+00 0.000000000000000000e+00 0.000000000000000000e+00 4.002778800000000164e-02 5.942901380000000344e+00 0.000000000000000000e+00 1.346369380000000116e-01 1.565658199999999875e-02 5.791449289000000000e+00
5.770585173999999817e+00 0.000000000000000000e+00 0.000000000000000000e+00 4.033757999999999788e-02 5.988896030000000259e+00 0.000000000000000000e+00 1.356789509999999921e-01 1.577775500000000095e-02 5.836271786000000183e+00
5.753570325000000096e+00 0.000000000000000000e+00 0.000000000000000000e+00 4.021864299999999837e-02 5.971237480000000097e+00 0.000000000000000000e+00 1.352788950000000101e-01 1.573123400000000019e-02 5.819063256999999822e+00
5.855694813999999582e+00 0.000000000000000000e+00 0.000000000000000000e+00 -1.007999999999999921e-06 5.855696014000000282e+00 0.000000000000000000e+00 -8.059999999999999911e-07 -2.303999999999999879e-06 5.855691185999999604e+00
5.981309868000000307e+00 0.000000000000000000e+00 0.000000000000000000e+00 3.019576999999999851e-03 5.891474145000000107e+00 0.000000000000000000e+00 1.220326040000000029e-01 -2.757811699999999921e-02 5.819816647999999759e+00
5.807235791000000091e+00 0.000000000000000000e+00 0.000000000000000000e+00 1.828103199999999914e-02 5.795334654000000363e+00 0.000000000000000000e+00 -1.316173419999999983e-01 9.668761200000000611e-02 5.934720669999999920e+00
5.791941998000000424e+00 0.000000000000000000e+00 0.000000000000000000e+00 -9.969999999999999411e-07 5.791943185000000049e+00 0.000000000000000000e+00 -7.969999999999999502e-07 -2.279000000000000118e-06 5.791938410000000204e+00
5.723504666000000185e+00 0.000000000000000000e+00 0.000000000000000000e+00 -5.930344900000000113e-02 5.895926603000000377e+00 0.000000000000000000e+00 -4.883154800000000240e-02 -1.560424579999999950e-01 5.920613332000000284e+00
5.772082004999999683e+00 0.000000000000000000e+00 0.000000000000000000e+00 1.817036899999999872e-02 5.760252912000000336e+00 0.000000000000000000e+00 -1.308206040000000070e-01 9.610231900000000549e-02 5.898795161999999870e+00
5.766751411000000438e+00 0.000000000000000000e+00 0.000000000000000000e+00 4.031078099999999692e-02 5.984917228999999672e+00 0.000000000000000000e+00 1.355888110000000035e-01 1.576727299999999832e-02 5.832394383999999654e+00
5.881391838999999955e+00 0.000000000000000000e+00 0.000000000000000000e+00 2.969134999999999917e-03 5.793056825999999937e+00 0.000000000000000000e+00 1.199940439999999942e-01 -2.711742300000000161e-02 5.722596369999999766e+00
5.734069599999999767e+00 0.000000000000000000e+00 0.000000000000000000e+00 -5.941291700000000259e-02 5.906809809000000300e+00 0.000000000000000000e+00 -4.892168599999999895e-02 -1.563304939999999865e-01 5.931542107000000286e+00
5.884863555999999996e+00 0.000000000000000000e+00 0.000000000000000000e+00 -1.013000000000000084e-06 5.884864762000000304e+00 0.000000000000000000e+00 -8.099999999999999739e-07 -2.315999999999999933e-06 5.884859910000000305e+00
5.687615647000000330e+00 0.000000000000000000e+00 0.000000000000000000e+00 3.975760600000000089e-02 5.902787626000000287e+00 0.000000000000000000e+00 1.337281580000000136e-01 1.555090200000000013e-02 5.752357815999999957e+00
5.683720004000000436e+00 0.000000000000000000e+00 0.000000000000000000e+00 3.973037499999999833e-02 5.898744605000000085e+00 0.000000000000000000e+00 1.336365630000000138e-01 1.554025099999999972e-02 5.748417829000000090e+00
5.756565731000000241e+00 0.000000000000000000e+00 0.000000000000000000e+00 1.812152399999999997e-02 5.744768436000000200e+00 0.000000000000000000e+00 -1.304689370000000070e-01 9.584398099999999476e-02 5.882938262999999779e+00
5.837719354999999943e+00 0.000000000000000000e+00 0.000000000000000000e+00 -1.004999999999999907e-06 5.837720551000000313e+00 0.000000000000000000e+00 -8.040000000000000526e-07 -2.297000000000000200e-06 5.837715736999999905e+00
5.847332160999999751e+00 0.000000000000000000e+00 0.000000000000000000e+00 -1.007000000000000057e-06 5.847333359000000286e+00 0.000000000000000000e+00 -8.050000000000000218e-07 -2.301000000000000077e-06 5.847328538000000187e+00
5.669807074999999585e+00 0.000000000000000000e+00 0.000000000000000000e+00 1.784840999999999858e-02 5.658187578999999801e+00 0.000000000000000000e+00 -1.285026069999999909e-01 9.439949200000000151e-02 5.794275014000000112e+00
5.741080872999999585e+00 0.000000000000000000e+00 0.000000000000000000e+00 4.013133900000000198e-02 5.958275530999999958e+00 0.000000000000000000e+00 1.349852410000000058e-01 1.569708499999999951e-02 5.806431637000000201e+00
5.677036590000000160e+00 0.000000000000000000e+00 0.000000000000000000e+00 3.968365599999999771e-02 5.891808346999999557e+00 0.000000000000000000e+00 1.334794209999999870e-01 1.552197800000000051e-02 5.741658337999999695e+00
5.652971666000000006e+00 0.000000000000000000e+00 0.000000000000000000e+00 -5.857263000000000053e-02 5.823268780000000255e+00 0.000000000000000000e+00 -4.822977800000000093e-02 -1.541194850000000005e-01 5.847651285000000421e+00
5.854464601000000101e+00 0.000000000000000000e+00 0.000000000000000000e+00 -1.007999999999999921e-06 5.854465800999999914e+00 0.000000000000000000e+00 -8.059999999999999911e-07 -2.303999999999999879e-06 5.854460974000000206e+00
5.845358744000000328e+00 0.000000000000000000e+00 0.000000000000000000e+00 -1.005999999999999982e-06 5.845359940999999893e+00 0.000000000000000000e+00 -8.050000000000000218e-07 -2.300000000000000002e-06 5.845355121999999959e+00
5.753043250000000164e+00 0.000000000000000000e+00 0.000000000000000000e+00 4.021495900000000151e-02 5.970690465999999752e+00 0.000000000000000000e+00 1.352665020000000107e-01 1.572979299999999886e-02 5.818530181999999940e+00
5.679105436000000395e+00 0.000000000000000000e+00 0.000000000000000000e+00 -5.884341199999999772e-02 5.850189836000000199e+00 0.000000000000000000e+00 -4.845274499999999845e-02 -1.548319820000000069e-01 5.874685062000000180e+00
5.746512774000000157e+00 0.000000000000000000e+00 0.000000000000000000e+00 4.016930900000000026e-02 5.963912930000000223e+00 0.000000000000000000e+00 1.351129570000000057e-01 1.571193699999999874e-02 5.811925369999999980e+00
5.777769454999999610e+00 0.000000000000000000e+00 0.000000000000000000e+00 1.818827300000000133e-02 5.765928705000000321e+00 0.000000000000000000e+00 -1.309495059999999933e-01 9.619701199999999841e-02 5.904607465999999860e+00
5.717329008000000101e+00 0.000000000000000000e+00 0.000000000000000000e+00 -5.923946100000000020e-02 5.889564902000000046e+00 0.000000000000000000e+00 -4.877885900000000080e-02 -1.558740879999999940e-01 5.914224993999999569e+00
5.707320110000000390e+00 0.000000000000000000e+00 0.000000000000000000e+00 -5.913575499999999818e-02 5.879254483999999614e+00 0.000000000000000000e+00 -4.869346599999999775e-02 -1.556012109999999893e-01 5.903871405000000294e+00
5.859328191000000352e+00 0.000000000000000000e+00 0.000000000000000000e+00 2.957996000000000063e-03 5.771324561000000131e+00 0.000000000000000000e+00 1.195438939999999978e-01 -2.701569399999999982e-02 5.701128433000000051e+00
5.780525241000000314e+00 0.000000000000000000e+00 0.000000000000000000e+00 2.918214000000000138e-03 5.693705183999999697e+00 0.000000000000000000e+00 1.179361309999999996e-01 -2.665235599999999858e-02 5.624453134000000354e+00
5.756078460000000341e+00 0.000000000000000000e+00 0.000000000000000000e+00 4.023617499999999902e-02 5.973840501999999830e+00 0.000000000000000000e+00 1.353378670000000006e-01 1.573809099999999919e-02 5.821599941999999750e+00
5.851358989999999594e+00 0.000000000000000000e+00 0.000000000000000000e+00 -1.007000000000000057e-06 5.851360189000000211e+00 0.000000000000000000e+00 -8.059999999999999911e-07 -2.302999999999999804e-06 5.851355364999999864e+00
5.941591039999999602e+00 0.000000000000000000e+00 0.000000000000000000e+00 2.999526000000000189e-03 5.852351870999999761e+00 0.000000000000000000e+00 1.212222470000000052e-01 -2.739498400000000070e-02 5.781170214000000307e+00
5.909624977000000001e+00 0.000000000000000000e+00 0.000000000000000000e+00 2.983388000000000012e-03 5.820865919000000055e+00 0.000000000000000000e+00 1.205700660000000035e-01 -2.724759800000000134e-02 5.750067224000000365e+00
5.660555522000000117e+00 0.000000000000000000e+00 0.000000000000000000e+00 -5.865120900000000276e-02 5.831081100999999656e+00 0.000000000000000000e+00 -4.829448100000000021e-02 -1.543262469999999997e-01 5.855496317000000062e+00
5.802859390000000062e+00 0.000000000000000000e+00 0.000000000000000000e+00 1.826725499999999960e-02 5.790967221999999914e+00 0.000000000000000000e+00 -1.315181539999999982e-01 9.661474800000000029e-02 5.930248195999999972e+00
5.812153426000000067e+00 0.000000000000000000e+00 0.000000000000000000e+00 -9.999999999999999547e-07 5.812154617000000023e+00 0.000000000000000000e+00 -7.999999999999999638e-07 -2.286999999999999872e-06 5.812149823999999576e+00
5.892575854000000390e+00 0.000000000000000000e+00 0.000000000000000000e+00 -1.013999999999999948e-06 5.892577060999999894e+00 0.000000000000000000e+00 -8.110000000000000491e-07 -2.319000000000000159e-06 5.892572203000000286e+00
5.720158120999999873e+00 0.000000000000000000e+00 0.000000000000000000e+00 1.800691399999999887e-02 5.708435438999999612e+00 0.000000000000000000e+00 -1.296437810000000135e-01 9.523781200000000502e-02 5.845731405000000436e+00
5.807532205000000225e+00 0.000000000000000000e+00 0.000000000000000000e+00 1.828196500000000072e-02 5.795630461000000011e+00 0.000000000000000000e+00 -1.316240599999999872e-01 9.669254800000000316e-02 5.935023591000000209e+00
5.737233274000000272e+00 0.000000000000000000e+00 0.000000000000000000e+00 -5.944569699999999873e-02 5.910068788000000239e+00 0.000000000000000000e+00 -4.894867700000000293e-02 -1.564167469999999949e-01 5.934814732000000426e+00
5.743025441000000342e+00 0.000000000000000000e+00 0.000000000000000000e+00 -5.950571200000000227e-02 5.916035446000000420e+00 0.000000000000000000e+00 -4.899809499999999846e-02 -1.565746610000000039e-01 5.940806373000000029e+00
5.741568627000000369e+00 0.000000000000000000e+00 0.000000000000000000e+00 4.013474899999999734e-02 5.958781737999999883e+00 0.000000000000000000e+00 1.349967089999999925e-01 1.569841900000000165e-02 5.806924943000000283e+00
5.809412145999999666e+00 0.000000000000000000e+00 0.000000000000000000e+00 4.060898899999999812e-02 6.029191889999999887e+00 0.000000000000000000e+00 1.365918570000000110e-01 1.588391499999999845e-02 5.875540724999999576e+00
5.822369839000000269e+00 0.000000000000000000e+00 0.000000000000000000e+00 -1.002000000000000105e-06 5.822371032000000390e+00 0.000000000000000000e+00 -8.020000000000000082e-07 -2.291000000000000173e-06 5.822366232000000252e+00
5.871461970999999558e+00 0.000000000000000000e+00 0.000000000000000000e+00 1.848321400000000128e-02 5.859429212000000220e+00 0.000000000000000000e+00 -1.330729880000000032e-01 9.775694699999999682e-02 6.000356792999999911e+00
5.798676473999999637e+00 0.000000000000000000e+00 0.000000000000000000e+00 -9.980000000000000162e-07 5.798677662000000232e+00 0.000000000000000000e+00 -7.980000000000000253e-07 -2.281999999999999920e-06 5.798672880999999890e+00
5.750756638000000365e+00 0.000000000000000000e+00 0.000000000000000000e+00 -5.958581799999999873e-02 5.923999547000000199e+00 0.000000000000000000e+00 -4.906405500000000225e-02 -1.567854409999999976e-01 5.948803820000000186e+00
5.638795675999999979e+00 0.000000000000000000e+00 0.000000000000000000e+00 -5.842574700000000010e-02 5.808665734999999941e+00 0.000000000000000000e+00 -4.810883199999999721e-02 -1.537329990000000091e-01 5.832987096000000093e+00
5.745205698000000361e+00 0.000000000000000000e+00 0.000000000000000000e+00 4.016017200000000092e-02 5.962556406000000031e+00 0.000000000000000000e+00 1.350822240000000007e-01 1.570836299999999949e-02 5.810603415000000105e+00
5.802676323000000025e+00 0.000000000000000000e+00 0.000000000000000000e+00 -6.012377800000000272e-02 5.977483324999999681e+00 0.000000000000000000e+00 -4.950702199999999775e-02 -1.582009500000000068e-01 6.002511539000000340e+00
5.715858658000000148e+00 0.000000000000000000e+00 0.000000000000000000e+00 -9.840000000000000232e-07 5.715859829000000225e+00 0.000000000000000000e+00 -7.870000000000000459e-07 -2.248999999999999982e-06 5.715855117000000263e+00
5.871797024000000143e+00 0.000000000000000000e+00 0.000000000000000000e+00 -1.010999999999999934e-06 5.871798227000000203e+00 0.000000000000000000e+00 -8.080000000000000354e-07 -2.310999999999999981e-06 5.871793385000000143e+00
5.753405556999999781e+00 0.000000000000000000e+00 0.000000000000000000e+00 -5.961326399999999914e-02 5.926728265999999579e+00 0.000000000000000000e+00 -4.908665499999999987e-02 -1.568576590000000104e-01 5.951543963999999853e+00
5.730921282999999811e+00 0.000000000000000000e+00 0.000000000000000000e+00 1.804079600000000130e-02 5.719176542999999668e+00 0.000000000000000000e+00 -1.298877220000000110e-01 9.541701399999999444e-02 5.856730847999999767e+00
5.878204172000000227e+00 0.000000000000000000e+00 0.000000000000000000e+00 2.967525999999999844e-03 5.789917036000000294e+00 0.000000000000000000e+00 1.199290080000000036e-01 -2.710272600000000059e-02 5.719494768999999756e+00
5.933176125000000134e+00 0.000000000000000000e+00 0.000000000000000000e+00 -1.021000000000000050e-06 5.933177341000000382e+00 0.000000000000000000e+00 -8.169999999999999704e-07 -2.335000000000000090e-06 5.933172448999999737e+00
5.853471214999999894e+00 0.000000000000000000e+00 0.000000000000000000e+00 2.955039999999999924e-03 5.765555553000000444e+00 0.000000000000000000e+00 1.194243980000000011e-01 -2.698868899999999973e-02 5.695429593000000068e+00
5.983407661000000211e+00 0.000000000000000000e+00 0.000000000000000000e+00 3.020636000000000154e-03 5.893540430999999913e+00 0.000000000000000000e+00 1.220754039999999985e-01 -2.758778900000000145e-02 5.821857801000000165e+00
5.760013862000000096e+00 0.000000000000000000e+00 0.000000000000000000e+00 -9.919999999999999890e-07 5.760015042000000030e+00 0.000000000000000000e+00 -7.929999999999999673e-07 -2.267000000000000064e-06 5.760010292999999670e+00
5.720609214000000442e+00 0.000000000000000000e+00 0.000000000000000000e+00 -5.927344899999999889e-02 5.892943924999999972e+00 0.000000000000000000e+00 -4.880684500000000148e-02 -1.559635179999999954e-01 5.917618165999999569e+00
5.604703321999999766e+00 0.000000000000000000e+00 0.000000000000000000e+00 3.917803200000000152e-02 5.816738591000000014e+00 0.000000000000000000e+00 1.317787089999999939e-01 1.532420599999999994e-02 5.668501700000000199e+00
5.811313049999999869e+00 0.000000000000000000e+00 0.000000000000000000e+00 -9.999999999999999547e-07 5.811314240999999825e+00 0.000000000000000000e+00 -7.999999999999999638e-07 -2.286999999999999872e-06 5.811309449000000349e+00
5.856854775999999596e+00 0.000000000000000000e+00 0.000000000000000000e+00 2.956747999999999928e-03 5.768888294999999999e+00 0.000000000000000000e+00 1.194934309999999972e-01 -2.700429000000000024e-02 5.698721799000000310e+00
5.865336272000000406e+00 0.000000000000000000e+00 0.000000000000000000e+00 2.961029999999999912e-03 5.777242403999999887e+00 0.000000000000000000e+00 1.196664729999999954e-01 -2.704339500000000132e-02 5.706974297000000362e+00
5.876133191000000089e+00 0.000000000000000000e+00 0.000000000000000000e+00 -1.010999999999999934e-06 5.876134395000000232e+00 0.000000000000000000e+00 -8.090000000000000047e-07 -2.312000000000000056e-06 5.876129549999999924e+00
5.696873515000000054e+00 0.000000000000000000e+00 0.000000000000000000e+00 3.982232100000000080e-02 5.912395735999999680e+00 0.000000000000000000e+00 1.339458299999999880e-01 1.557621499999999916e-02 5.761721066999999863e+00
5.883427681999999770e+00 0.000000000000000000e+00 0.000000000000000000e+00 2.970163000000000057e-03 5.795062092000000220e+00 0.000000000000000000e+00 1.200355800000000028e-01 -2.712681000000000120e-02 5.724577247000000035e+00
5.765060766000000392e+00 0.000000000000000000e+00 0.000000000000000000e+00 4.029896300000000015e-02 5.983162624000000207e+00 0.000000000000000000e+00 1.355490599999999990e-01 1.576265099999999905e-02 5.830684493999999773e+00
5.810231475000000145e+00 0.000000000000000000e+00 0.000000000000000000e+00 4.061471600000000209e-02 6.030042216000000010e+00 0.000000000000000000e+00 1.366111210000000020e-01 1.588615499999999903e-02 5.876369380999999947e+00