-7.538499999999999368e-02 3.766920000000000268e-01 5.518000000000000335e-03 4.871119999999999894e-01 -4.589539999999999731e-01 -4.920760000000000134e-01 -1.400710000000000011e-01 -3.404320000000000124e-01 5.382949999999999680e-01 4.940729999999999844e-01 -4.629510000000000014e-01 -2.997100000000000111e-02 -2.289360000000000006e-01 -1.193599000000000077e+00 -1.082389999999999963e+00 4.097919999999999896e-01 5.637609999999999566e-01 -8.489119999999999999e-01 -1.844139999999999946e-01 1.695737999999999968e+00 -9.496830000000000549e-01 -5.819779999999999953e-01 -4.849470000000000169e-01 2.076409999999999922e-01 -7.088160000000000016e-01 8.517310000000000159e-01 5.045629999999999837e-01 4.052939999999999876e-01 -3.230839999999999823e-01 4.590799999999999742e-02 -1.203520000000000006e-01 -5.180850000000000177e-01 1.033663999999999916e+00 -8.308259999999999534e-01 4.445899999999999852e-02 -2.644360000000000044e-01 3.423030000000000239e-01 2.128999999999999990e-02 2.450600000000000001e-01 -2.155449999999999866e-01 3.501810000000000200e-01 7.106379999999999919e-01 3.083540000000000170e-01 -8.974830000000000307e-01 -1.238680000000000059e-01 6.393950000000000466e-01 7.756830000000000114e-01 5.000480000000000480e-01
9.957000000000000572e-02 2.687089999999999756e-01 7.088440000000000296e-01 2.797609999999999819e-01 -5.877440000000000442e-01 5.564639999999999587e-01 -6.666659999999999808e-01 -9.628510000000000124e-01 1.003340000000000065e-01 4.003169999999999784e-01 -4.890959999999999752e-01 -1.133119999999999905e+00 6.799309999999999521e-01 1.721870000000000067e-01 8.385800000000000198e-02 3.487959999999999949e-01 -3.196570000000000245e-01 -3.724999999999999839e-02 1.961040000000000005e-01 -1.346910000000000052e-01 -1.856980000000000020e-01 -1.581230000000000135e-01 -2.389920000000000100e-01 -4.565690000000000026e-01 2.938089999999999868e-01 1.370932999999999957e+00 -2.862680000000000224e-01 -1.072958000000000078e+00 -4.122839999999999838e-01 1.181620000000000031e-01 -7.092349999999999488e-01 1.619277999999999995e+00 7.327489999999999837e-01 -9.208809999999999496e-01 3.804899999999999949e-02 -3.541290000000000271e-01 -3.687000000000000173e-03 4.260220000000000118e-01 -2.255000000000000060e-02 5.091040000000000010e-01 -6.067439999999999500e-01 4.808850000000000069e-01 1.117820000000000036e+00 -5.208230000000000359e-01 -5.198530000000000095e-01 -3.936609999999999832e-01 3.777039999999999842e-01 2.141399999999999970e-01
-3.580309999999999881e-01 -8.265900000000000469e-01 -4.328460000000000085e-01 3.043429999999999747e-01 3.312559999999999949e-01 1.711360000000000103e-01 4.523369999999999891e-01 2.330649999999999944e-01 4.212960000000000038e-01 3.025280000000000191e-01 -2.633440000000000225e-01 -5.243050000000000210e-01 -9.362909999999999844e-01 1.273638000000000048e+00 1.241778000000000048e+00 6.714000000000000350e-03 3.897229999999999861e-01 3.842269999999999852e-01 9.384109999999999951e-01 -3.851720000000000144e-01 -1.434865000000000057e+00 1.350200000000000011e-01 -4.520300000000000012e-02 -1.109100000000000016e-02 7.821799999999999586e-02 4.706170000000000075e-01 1.608469999999999900e-01 -4.618039999999999923e-01 -3.506980000000000097e-01 -1.890030000000000043e-01 -3.988920000000000243e-01 3.492649999999999921e-01 -2.739989999999999926e-01 5.878100000000000547e-01 -5.113760000000000527e-01 2.513940000000000063e-01 2.491269999999999873e-01 3.935870000000000202e-01 4.085889999999999800e-01 -6.656330000000000302e-01 -9.643000000000000183e-02 3.260819999999999830e-01 -1.936239999999999906e-01 -3.953929999999999945e-01 -6.637070000000000469e-01 -4.023299999999999793e-02 -5.669450000000000323e-01 1.644660000000000011e-01
3.170000000000000075e-03 -1.020390000000000047e-01 -6.935780000000000278e-01 -3.302930000000000033e-01 2.529239999999999822e-01 1.733040000000000136e-01 1.240610000000000046e-01 -4.634679999999999911e-01 6.695480000000000320e-01 5.801279999999999770e-01 2.606629999999999781e-01 -1.750170000000000059e-01 -9.283600000000000185e-02 4.225720000000000032e-01 8.880839999999999845e-01 -5.232099999999999529e-01 1.119900000000000062e-01 3.587870000000000226e-01 -4.185969999999999969e-01 3.097440000000000193e-01 1.414769999999999917e-01 2.056129999999999902e-01 -2.627499999999999836e-01 -8.961660000000000181e-01 6.133499999999999508e-01 5.529990000000000183e-01 1.777670000000000083e-01 -5.255739999999999856e-01 1.246120000000000005e-01 -5.596500000000000086e-02 3.240950000000000220e-01 -1.917850000000000110e-01 -1.321769999999999889e-01 7.858589999999999742e-01 -4.553780000000000050e-01 2.284970000000000057e-01 -2.370600000000000138e-02 -4.184539999999999926e-01 -2.116109999999999935e-01 7.298000000000000320e-02 3.954790000000000250e-01 4.888299999999999867e-01 -7.637100000000000000e-01 -1.141467999999999927e+00 -1.010521999999999920e+00 -3.132800000000000168e-02 6.043589999999999796e-01 4.874200000000000060e-02
3.810279999999999778e-01 2.881099999999999980e-02 -7.937490000000000379e-01 3.634760000000000213e-01 4.333279999999999910e-01 -2.114840000000000053e-01 -9.159399999999999764e-01 -5.491289999999999782e-01 -2.741790000000000060e-01 -1.083159999999999956e-01 6.025439999999999685e-01 8.828200000000000491e-01 3.415030000000000010e-01 9.925460000000000393e-01 3.895399999999999974e-01 9.301209999999999756e-01 1.389999999999999916e-02 -7.153420000000000334e-01 9.117250000000000076e-01 5.313290000000000513e-01 1.260731999999999964e+00 -4.189890000000000003e-01 8.303629999999999622e-01 7.463220000000000409e-01 -5.325400000000000134e-01 -1.382230000000000125e-01 -9.125870000000000370e-01 -9.425080000000000124e-01 4.124240000000000128e-01 4.248629999999999907e-01 1.414710000000000134e-01 4.377929999999999877e-01 2.768129999999999757e-01 -1.504709999999999936e-01 -2.512900000000000134e-01 -5.272280000000000300e-01 7.067240000000000189e-01 -8.175120000000000164e-01 -9.798440000000000483e-01 -3.192969999999999975e-01 -1.383923999999999932e+00 -3.549749999999999850e-01 -1.057089999999999974e-01 -1.568150000000000099e-01 -6.179099999999999870e-02 -2.822770000000000001e-01 -9.861450000000000493e-01 8.500889999999999835e-01
-9.908219999999999805e-01 1.722239999999999993e+00 2.042740000000000111e-01 3.990739999999999843e-01 -2.813809999999999922e-01 -2.352699999999999930e-02 5.950130000000000141e-01 5.548969999999999736e-01 -8.920280000000000431e-01 6.555940000000000101e-01 -1.329740000000000089e-01 3.768900000000000028e-02 -8.061190000000000300e-01 -3.760999999999999899e-01 -4.879020000000000024e-01 4.005150000000000099e-01 -1.704400000000000012e-02 -5.390220000000000011e-01 -6.524330000000000407e-01 -1.008359999999999951e-01 9.324999999999999956e-02 -4.924060000000000104e-01 2.605049999999999866e-01 3.575800000000000090e-01 4.336999999999999883e-02 2.130599999999999994e-01 4.055799999999999683e-02 2.032480000000000120e-01 1.951594999999999969e+00 5.562920000000000087e-01 -1.507799999999999974e-01 -5.074060000000000237e-01 -5.159920000000000062e-01 -2.403359999999999941e-01 -1.593196000000000057e+00 2.730350000000000277e-01 4.790820000000000078e-01 -9.327269999999999728e-01 1.172400000000000005e-02 1.681200000000000055e-02 -3.438260000000000205e-01 4.485830000000000095e-01 1.981690000000000118e-01 3.528399999999999870e-01 -4.571299999999999669e-02 3.420179999999999887e-01 -7.696469999999999700e-01 4.811969999999999859e-01
-7.704790000000000250e-01 -5.962200000000000139e-02 7.066489999999999716e-01 -1.635129999999999917e-01 1.426946000000000048e+00 -9.542799999999999894e-02 -5.688269999999999715e-01 -8.137999999999999678e-01 -7.173610000000000264e-01 4.798140000000000183e-01 4.666100000000000109e-02 -9.586249999999999494e-01 -2.490660000000000096e-01 -5.884699999999999653e-02 -6.176859999999999573e-01 -1.279629999999999934e-01 -5.405039999999999845e-01 2.734019999999999784e-01 4.220990000000000020e-01 -1.999400000000000135e-02 8.259900000000000020e-01 1.426520000000000010e-01 -6.004899999999999821e-02 -5.331510000000000415e-01 4.815900000000000042e-02 -1.544989999999999974e-01 -5.341479999999999562e-01 -5.667480000000000295e-01 -1.008202000000000043e+00 -4.854999999999999941e-03 1.638310000000000044e-01 5.977919999999999900e-01 5.166220000000000256e-01 -2.124320000000000097e-01 5.202350000000000030e-01 -1.301000000000000073e-02 -8.911430000000000184e-01 -1.371126999999999985e+00 -6.153889999999999638e-01 8.263500000000000290e-01 4.492169999999999774e-01 -6.506099999999999384e-02 -6.966999999999999582e-02 3.464969999999999994e-01 4.635759999999999881e-01 1.536936000000000080e+00 6.992949999999999999e-01 1.368475000000000108e+00
1.961320000000000008e-01 4.152669999999999972e-01 6.801479999999999748e-01 8.239990000000000370e-01 -8.724020000000000108e-01 -1.352913000000000032e+00 -5.561080000000000467e-01 6.497450000000000170e-01 6.973430000000000462e-01 -4.124180000000000068e-01 -1.604250000000000120e-01 -6.421100000000000418e-02 1.084200999999999970e+00 1.379620000000000013e-01 -4.307960000000000123e-01 3.036249999999999782e-01 1.056210000000000065e-01 -3.241000000000000131e-02 -4.566250000000000031e-01 9.068070000000000297e-01 -7.604570000000000496e-01 -6.210780000000000189e-01 9.231100000000000416e-02 2.096949999999999925e-01 1.128809999999999952e-01 -7.429550000000000320e-01 1.443240000000000078e-01 -7.113749999999999796e-01 2.136800000000000088e-01 4.071179999999999799e-01 1.537719999999999920e-01 -3.852269999999999861e-01 -7.504210000000000047e-01 9.576529999999999765e-01 -1.128017999999999965e+00 1.666711000000000054e+00 -1.964588000000000001e+00 1.037649999999999961e+00 -3.411460000000000048e-01 9.566900000000000404e-02 1.528110000000000024e-01 -3.737190000000000234e-01 9.323199999999999543e-02 -5.562009999999999454e-01 2.605810000000000071e-01 9.010280000000000511e-01 1.333739999999999926e-01 4.015400000000000219e-02
6.910389999999999588e-01 5.586889999999999912e-01 -9.327060000000000350e-01 -1.337740000000000040e-01 4.049740000000000006e-01 5.543690000000000007e-01 -3.618990000000000262e-01 -4.116210000000000147e-01 -1.289059999999999928e-01 -7.471870000000000456e-01 2.550810000000000022e-01 -1.139489999999999947e-01 -1.125769999999999965e-01 4.564909999999999801e-01 2.874149999999999761e-01 -9.723749999999999893e-01 -1.847580000000000056e-01 2.830500000000000238e-01 1.584629999999999928e-01 -2.175500000000000003e-02 4.641950000000000243e-01 1.032470000000000054e-01 -8.694309999999999539e-01 -6.063450000000000228e-01 -3.561019999999999741e-01 -7.093300000000000161e-01 -6.344980000000000064e-01 6.489100000000000423e-02 -9.717329999999999579e-01 -7.682020000000000515e-01 4.032379999999999853e-01 5.089029999999999943e-01 8.044300000000000062e-02 6.555579999999999741e-01 1.047228000000000048e+00 8.879209999999999603e-01 2.899869999999999948e-01 5.017369999999999886e-01 3.089060000000000139e-01 8.388480000000000381e-01 -1.069194999999999895e+00 5.144950000000000356e-01 -4.533179999999999987e-01 -1.379200000000000044e-02 -4.093620000000000037e-01 -6.803800000000000125e-02 5.185110000000000552e-01 2.131740000000000024e-01
3.613199999999999745e-02 4.351909999999999945e-01 8.784530000000000394e-01 -4.953370000000000273e-01 8.244500000000000439e-02 -1.003557999999999950e+00 -2.848479999999999901e-01 -3.017719999999999847e-01 -1.352329999999999921e-01 -9.971399999999999708e-02 -4.799760000000000137e-01 -9.152010000000000423e-01 -3.581130000000000146e-01 -5.072510000000000074e-01 1.180169999999999941e+00 1.070130000000000026e+00 -6.582599999999999563e-02 -7.842839999999999812e-01 1.036200000000000010e+00 -9.693110000000000337e-01 2.655460000000000043e-01 6.818100000000000549e-02 8.743739999999999846e-01 3.726600000000000051e-02 1.470160000000000078e-01 -4.205010000000000137e-01 -1.648179999999999923e-01 -1.304629999999999956e-01 -8.435570000000000013e-01 7.580200000000000271e-01 -8.781769999999999854e-01 3.059769999999999990e-01 5.157599999999999962e-01 1.228910000000000002e-01 7.208740000000000148e-01 2.647639999999999993e-01 -3.236809999999999965e-01 6.711019999999999763e-01 3.470590000000000064e-01 7.241319999999999979e-01 -1.182880000000000043e-01 -5.776320000000000343e-01 -3.956700000000000217e-01 2.542630000000000168e-01 -8.723370000000000291e-01 -2.386770000000000003e-01 3.622569999999999957e-01 2.060259999999999869e-01
2.548130000000000117e-01 2.305379999999999929e-01 2.520800000000000124e-02 -2.645129999999999981e-01 1.096462000000000048e+00 6.115289999999999893e-01 6.306040000000000534e-01 -6.770299999999999929e-02 1.198820000000000024e-01 -5.575919999999999765e-01 -4.615670000000000051e-01 -3.662020000000000275e-01 2.635730000000000017e-01 5.169369999999999798e-01 5.833399999999999697e-02 -2.365849999999999898e-01 1.040561999999999987e+00 4.507189999999999808e-01 7.250870000000000370e-01 4.468500000000000250e-01 1.900820000000000010e-01 -3.281189999999999940e-01 -7.421780000000000044e-01 -1.781770000000000020e-01 1.401415999999999995e+00 2.497840000000000060e-01 -1.455837999999999965e+00 -8.749599999999999600e-01 -1.745716000000000045e+00 1.366025000000000045e+00 3.491360000000000019e-01 2.204109999999999958e-01 7.723020000000000440e-01 -7.488660000000000316e-01 1.880300000000000027e-01 -2.072019999999999973e-01 4.879000000000000004e-02 6.310300000000000631e-02 2.369699999999999862e-01 -7.281739999999999879e-01 -7.544859999999999900e-01 -4.842739999999999823e-01 1.927760000000000029e-01 2.513529999999999931e-01 -3.151530000000000165e-01 -1.273870000000000002e-01 -5.323809999999999931e-01 -8.242040000000000477e-01
6.561000000000000165e-02 -2.987429999999999808e-01 6.069930000000000048e-01 2.103990000000000027e-01 -8.186419999999999808e-01 2.544279999999999875e-01 1.247686000000000073e+00 1.849560000000000093e-01 1.821949999999999958e-01 -5.016739999999999533e-01 -1.094099999999999934e-01 -1.537841000000000014e+00 -6.218939999999999468e-01 -8.179680000000000284e-01 9.455609999999999848e-01 -3.909119999999999817e-01 -7.226129999999999498e-01 -5.871300000000000130e-02 4.912659999999999805e-01 5.690619999999999568e-01 -4.618269999999999875e-01 2.919300000000000020e-02 -1.560580000000000023e-01 1.779590000000000061e-01 3.447600000000000109e-01 4.169930000000000025e-01 3.478400000000000242e-02 -9.980839999999999712e-01 -4.313609999999999944e-01 -3.757400000000000323e-02 -6.104969999999999564e-01 -4.135119999999999907e-01 4.509310000000000263e-01 5.294149999999999689e-01 6.280200000000000227e-01 1.079200000000000020e-01 -1.022300000000000014e-01 8.369259999999999478e-01 -2.373000000000000109e-02 4.098970000000000113e-01 4.286969999999999947e-01 -1.433783999999999947e+00 -5.303470000000000129e-01 6.595180000000000486e-01 6.369890000000000274e-01 4.274140000000000161e-01 4.413500000000000062e-02 1.557099999999999873e-01
-2.018905000000000172e+00 3.429130000000000233e-01 1.004929999999999990e-01 1.101680000000000020e-01 5.758520000000000305e-01 -2.922699999999999951e-02 1.547300000000000064e-01 1.514129999999999920e-01 -4.818160000000000220e-01 2.732570000000000277e-01 9.847590000000000510e-01 6.916400000000000325e-02 -5.774709999999999566e-01 -1.418109000000000064e+00 1.505399999999999967e-02 2.465029999999999999e-01 -8.124050000000000438e-01 2.093099999999999961e-01 -6.768269999999999564e-01 -2.004549999999999943e-01 -2.387950000000000073e-01 4.280649999999999733e-01 1.174399999999999923e-02 -6.078499999999999875e-02 3.712710000000000177e-01 4.712770000000000015e-01 5.970309999999999784e-01 -3.223039999999999794e-01 -3.026300000000000101e-01 2.686850000000000072e-01 2.390829999999999900e-01 -1.592899999999999872e-02 -1.093029999999999974e-01 -4.081370000000000275e-01 8.382730000000000459e-01 -1.157700000000000048e-02 -2.072400000000000075e-01 -5.726430000000000131e-01 -6.164819999999999744e-01 7.036099999999999577e-01 -1.341799999999999937e-02 -2.039269999999999972e-01 1.629949000000000092e+00 4.607699999999999990e-02 4.552680000000000060e-01 5.424799999999999761e-02 -8.671900000000000441e-02 3.690700000000000230e-02
5.206429999999999669e-01 -1.136141999999999985e+00 -3.545840000000000103e-01 2.115549999999999931e-01 -1.396306000000000047e+00 1.231800000000000082e-02 2.555899999999999839e-01 2.417400000000000104e-02 -9.548299999999999843e-02 -2.269249999999999878e-01 1.507303999999999977e+00 -7.940570000000000128e-01 8.311250000000000027e-01 1.444030000000000036e-01 3.767130000000000201e-01 -1.132600000000000051e+00 8.236400000000000665e-02 -1.117969999999999908e+00 2.060510000000000119e-01 2.637079999999999980e-01 -1.792219999999999924e-01 -4.077290000000000081e-01 9.584610000000000074e-01 4.847589999999999955e-01 -6.042370000000000241e-01 7.410449999999999537e-01 8.159210000000000074e-01 -6.489799999999999736e-02 -1.039252999999999982e+00 3.444940000000000224e-01 4.066199999999999676e-02 1.144330999999999987e+00 -6.248500000000000165e-01 -1.091669000000000000e+00 -1.797380000000000089e-01 1.116881999999999930e+00 6.919440000000000035e-01 -6.222290000000000321e-01 5.104170000000000096e-01 -6.807290000000000285e-01 -4.583200000000000052e-01 -2.137370000000000103e-01 6.150640000000000551e-01 -4.488639999999999852e-01 -3.848980000000000179e-01 8.361539999999999528e-01 4.150599999999999845e-01 1.032969999999999999e-01
2.208789999999999920e-01 9.092200000000000282e-02 -7.563490000000000490e-01 1.128216000000000108e+00 -2.188789999999999902e-01 -8.005879999999999663e-01 -8.259260000000000490e-01 -3.373070000000000235e-01 -6.465300000000000491e-01 3.254569999999999963e-01 -9.789780000000000149e-01 -2.651189999999999936e-01 -6.791690000000000227e-01 -2.155019999999999991e-01 -3.822749999999999759e-01 -8.409870000000000401e-01 1.289599999999999948e-02 -5.448880000000000390e-01 -9.805490000000000039e-01 4.365410000000000124e-01 -2.700100000000000069e-02 8.886180000000000190e-01 8.727470000000000505e-01 -6.606300000000000505e-01 6.291639999999999455e-01 -6.423349999999999893e-01 3.183559999999999723e-01 5.648919999999999497e-01 8.161429999999999518e-01 2.217850000000000099e-01 -8.703999999999999931e-03 4.016700000000000131e-02 5.848339999999999650e-01 1.236604999999999954e+00 -5.851589999999999847e-01 7.346479999999999677e-01 -4.113649999999999807e-01 1.091223999999999972e+00 4.274939999999999851e-01 1.745000000000000023e-02 2.799280000000000102e-01 4.782899999999999929e-01 -9.431140000000000079e-01 -5.302890000000000104e-01 1.337868000000000057e+00 -3.214670000000000027e-01 -1.321199999999999875e-01 -1.989399999999999849e-02
-3.092349999999999821e-01 1.763089999999999935e-01 -1.441759999999999986e-01 9.615799999999999348e-02 -1.439960000000000129e-01 -1.872240000000000015e-01 8.568099999999999328e-02 3.923240000000000061e-01 -1.524179999999999979e-01 2.470100000000000073e-01 -7.342579999999999663e-01 -2.508469999999999867e-01 2.100390000000000035e-01 3.718489999999999851e-01 3.533459999999999934e-01 1.998360000000000136e-01 5.614980000000000526e-01 -4.885410000000000030e-01 -6.742780000000000440e-01 -1.106754999999999933e+00 1.273029999999999995e-01 3.353809999999999847e-01 -4.632399999999999712e-02 4.947739999999999916e-01 3.119310000000000138e-01 -1.840279999999999971e-01 -1.189800000000000059e-02 -6.857860000000000067e-01 6.439799999999999969e-01 -9.119230000000000391e-01 2.213940000000000075e-01 1.815239999999999909e-01 1.465406999999999904e+00 -1.901009999999999922e-01 2.155500000000000124e-02 2.011469999999999925e-01 1.461100000000000072e-02 7.178069999999999729e-01 -3.008440000000000003e-01 -1.256208999999999909e+00 -6.099329999999999474e-01 -5.582899999999999530e-01 1.623869000000000007e+00 -7.355220000000000091e-01 7.006839999999999735e-01 -2.303020000000000067e-01 4.939689999999999914e-01 -3.364989999999999926e-01
-6.165669999999999762e-01 1.726091000000000042e+00 -1.448676999999999992e+00 3.554379999999999762e-01 -9.057929999999999593e-01 -1.374769999999999881e-01 5.108399999999999747e-02 -9.807730000000000059e-01 2.974359999999999782e-01 9.123090000000000366e-01 -1.692928999999999906e+00 1.280553000000000052e+00 5.925660000000000371e-01 6.476239999999999775e-01 -1.956670000000000076e-01 -9.126300000000000523e-01 -8.503319999999999768e-01 1.181279999999999969e-01 4.142049999999999899e-01 1.473029999999999895e-01 3.567779999999999840e-01 1.337799999999999927e-02 3.169000000000000150e-01 -7.215570000000000039e-01 -7.376319999999999544e-01 -1.529780000000000029e-01 7.912379999999999969e-01 2.552360000000000184e-01 6.648830000000000018e-01 3.560920000000000196e-01 -8.030610000000000248e-01 -5.107270000000000421e-01 -5.225779999999999870e-01 -5.014100000000000223e-01 4.587579999999999991e-01 -6.850479999999999903e-01 -7.698199999999999488e-02 2.972350000000000270e-01 -7.837089999999999890e-01 3.924989999999999868e-01 6.484900000000000386e-02 7.924100000000000588e-02 -2.540250000000000008e-01 5.073010000000000019e-01 3.933010000000000117e-01 9.155929999999999902e-01 2.625870000000000148e-01 8.219459999999999544e-01
-2.667089999999999739e-01 -3.250850000000000128e-01 -4.088089999999999780e-01 -3.203309999999999769e-01 -3.581869999999999776e-01 1.170599999999999939e-02 2.244289999999999896e-01 4.843169999999999975e-01 -6.544299999999999562e-01 1.001360999999999946e+00 -2.985740000000000061e-01 -8.318100000000000493e-02 -2.832140000000000213e-01 9.419700000000000295e-02 6.812820000000000542e-01 -6.307319999999999593e-01 -5.006549999999999612e-01 -2.126830000000000109e-01 4.197830000000000172e-01 7.617159999999999487e-01 -2.291130000000000111e-01 -9.434900000000000231e-02 -3.770780000000000243e-01 3.025039999999999951e-01 1.655005999999999977e+00 1.106260000000000021e-01 1.250890000000000057e-01 -2.573320000000000052e-01 1.110659999999999981e-01 -2.305899999999999894e-01 -3.135099999999999693e-02 -4.115139999999999909e-01 -1.569830000000000114e-01 -2.420319999999999971e-01 7.060849999999999627e-01 2.113539999999999863e-01 -1.033410000000000023e-01 -1.247790000000000010e-01 5.467319999999999958e-01 -1.957810999999999968e+00 -7.562529999999999530e-01 -2.220550000000000024e-01 6.429289999999999727e-01 8.353890000000000482e-01 2.711620000000000141e-01 2.436929999999999930e-01 4.873000000000000248e-02 4.801400000000000112e-02
4.164400000000000046e-02 -2.394620000000000082e-01 -6.954000000000000459e-02 6.958649999999999558e-01 -4.448540000000000272e-01 -1.540970000000000117e-01 6.434480000000000199e-01 8.738110000000000044e-01 -3.028640000000000221e-01 -5.536720000000000530e-01 -6.093000000000000325e-03 4.321840000000000126e-01 4.386789999999999856e-01 6.638370000000000104e-01 2.259799999999999864e-01 1.345200000000000042e-02 4.655400000000000094e-01 -2.244339999999999946e-01 -3.049279999999999768e-01 -7.238600000000000589e-02 -1.580090000000000106e-01 -1.119150000000000006e-01 -8.976180000000000270e-01 3.797030000000000127e-01 3.020849999999999924e-01 7.039969999999999839e-01 4.627609999999999779e-01 -3.954070000000000085e-01 -1.053053000000000017e+00 -6.813139999999999752e-01 1.755029999999999923e-01 8.109840000000000382e-01 -6.476800000000000335e-01 7.999260000000000259e-01 2.458199999999999968e-02 -9.474000000000000477e-02 -3.533569999999999767e-01 1.066667999999999950e+00 3.377760000000000207e-01 -7.913440000000000474e-01 -9.258429999999999715e-01 7.819530000000000092e-01 1.963489999999999958e-01 -4.944910000000000139e-01 2.775869999999999727e-01 -7.963270000000000071e-01 -4.756210000000000160e-01 -5.652679999999999927e-01
-3.738299999999999956e-02 3.674279999999999768e-01 -2.540900000000000103e-02 3.469479999999999786e-01 4.666830000000000145e-01 1.281848000000000098e+00 1.121653000000000011e+00 -5.356750000000000123e-01 8.717219999999999969e-01 5.217589999999999728e-01 7.140090000000000048e-01 -2.114620000000000111e-01 -8.909049999999999470e-01 8.543230000000000546e-01 -1.269589000000000079e+00 1.366630000000000067e-01 -9.460300000000000653e-02 9.761699999999999544e-02 -2.349600000000000022e-01 2.667300000000000226e-01 -5.300099999999999950e-02 1.269540000000000113e-01 -5.860640000000000294e-01 6.896560000000000468e-01 -2.103490000000000082e-01 7.010560000000000125e-01 -3.961680000000000201e-01 -2.455869999999999997e-01 -2.570600000000000107e-01 -5.893639999999999990e-01 3.950839999999999907e-01 3.584229999999999916e-01 -6.333999999999999353e-02 -1.042219999999999952e-01 -4.302830000000000266e-01 1.421370000000000133e-01 -3.970259999999999900e-01 -5.367060000000000164e-01 6.264300000000000423e-01 -7.989000000000000268e-02 -2.083600000000000035e-02 -5.228230000000000377e-01 -1.378479999999999983e-01 -8.318579999999999863e-01 6.886660000000000004e-01 -3.108890000000000264e-01 -4.355669999999999820e-01 -1.266920000000000046e+00
-9.380849999999999467e-01 1.224510000000000043e-01 -3.161900000000000127e-02 8.929319999999999480e-01 -7.955480000000000329e-01 4.971720000000000028e-01 7.312419999999999476e-01 6.722299999999999942e-01 -7.033000000000000189e-03 -2.186960000000000015e-01 -3.517489999999999783e-01 -4.905700000000000338e-02 -4.032029999999999781e-01 3.556700000000000139e-02 2.598889999999999811e-01 -8.153120000000000367e-01 7.649999999999999682e-03 -1.171694000000000013e+00 -6.489179999999999948e-01 2.153049999999999964e-01 9.104399999999999993e-02 1.611859999999999959e-01 1.014290000000000053e-01 3.943780000000000063e-01 5.984180000000000055e-01 -4.442010000000000125e-01 -3.601699999999999902e-01 -1.703709999999999947e-01 -3.479909999999999948e-01 -3.805149999999999921e-01 -2.539359999999999951e-01 1.171470999999999929e+00 1.267009999999999970e+00 4.803600000000000092e-01 2.815460000000000185e-01 -1.895789999999999975e-01 1.902050000000000129e-01 5.863199999999999662e-02 6.614299999999999347e-02 4.729280000000000150e-01 2.705449999999999799e-01 3.595050000000000190e-01 1.553640000000000021e-01 -1.605689999999999895e-01 -2.401590000000000114e-01 -2.341129999999999878e-01 -8.367660000000000098e-01 -5.053140000000000409e-01
-4.186980000000000146e-01 -6.082410000000000316e-01 -9.501190000000000468e-01 2.189109999999999945e-01 -1.407766000000000073e+00 -6.020759999999999446e-01 1.168649999999999967e-01 -2.064620000000000066e-01 1.123912999999999940e+00 3.538000000000000173e-02 -6.252699999999999925e-02 -2.134369999999999878e-01 6.154169999999999918e-01 6.445969999999999756e-01 5.407319999999999904e-01 4.917250000000000232e-01 3.096949999999999981e-01 -2.483209999999999862e-01 1.816129999999999967e-01 -2.581249999999999933e-01 -8.052960000000000118e-01 1.426060000000000105e-01 2.216029999999999944e-01 4.374219999999999775e-01 8.880029999999999868e-01 1.510693000000000064e+00 4.664960000000000218e-01 -1.120409999999999906e+00 -8.082059999999999800e-01 -1.270983999999999892e+00 -3.560559999999999836e-01 1.737190000000000123e-01 1.845590000000000008e-01 -1.109929999999999944e-01 7.339999999999999520e-04 3.322339999999999738e-01 -4.959199999999999720e-02 2.426540000000000086e-01 4.277360000000000051e-01 -5.139259999999999939e-01 1.017419999999999991e-01 2.876700000000000090e-02 -4.220999999999999752e-02 2.683100000000000068e-02 1.121240000000000014e+00 -7.863599999999999757e-02 1.190589999999999982e-01 -5.728640000000000398e-01
4.581140000000000212e-01 -1.132630999999999943e+00 6.923089999999999522e-01 4.265100000000000002e-01 1.811431999999999931e+00 1.014523000000000064e+00 -3.923130000000000228e-01 5.342479999999999452e-01 -4.575400000000000300e-02 -3.054879999999999818e-01 1.487432000000000087e+00 -1.948334999999999928e+00 -3.684049999999999825e-01 5.119190000000000129e-01 3.990409999999999791e-01 7.772379999999999844e-01 1.254879999999999884e-01 9.022970000000000157e-01 -6.604759999999999520e-01 5.946270000000000167e-01 7.773630000000000262e-01 -4.775240000000000040e-01 -4.237219999999999875e-01 4.011310000000000153e-01 1.837647999999999948e+00 -1.219424999999999981e+00 1.451310000000000100e-01 1.863730000000000109e-01 -9.919109999999999872e-01 1.426979999999999915e-01 8.732180000000000497e-01 1.203128999999999893e+00 1.350781999999999927e+00 -5.842460000000000431e-01 2.997630000000000017e-01 2.495030000000000026e-01 -5.451000000000000290e-01 -1.534189999999999998e-01 -4.951579999999999870e-01 1.172300000000000078e-02 -1.444418999999999897e+00 -1.029438000000000075e+00 -5.652169999999999694e-01 7.946999999999999897e-02 -1.486452000000000107e+00 -6.720549999999999580e-01 -1.281981999999999955e+00 -1.069641999999999982e+00
-9.259330000000000060e-01 1.144779999999999909e+00 6.288970000000000393e-01 -3.484579999999999900e-01 6.672559999999999603e-01 3.805580000000000074e-01 6.874959999999999960e-01 -6.494060000000000388e-01 -6.746220000000000550e-01 1.978370000000000128e-01 2.130420000000000091e-01 -6.487249999999999961e-01 -4.889999999999999902e-01 -6.573900000000000576e-02 3.777929999999999899e-01 -8.140819999999999723e-01 4.246240000000000014e-01 6.401900000000000646e-02 6.785430000000000073e-01 -2.821500000000000050e-02 8.526400000000000645e-02 6.389749999999999597e-01 -1.169227000000000016e+00 6.260860000000000314e-01 -3.444679999999999964e-01 -9.452289999999999859e-01 2.904729999999999812e-01 -8.009070000000000356e-01 1.298961999999999950e+00 -7.525690000000000435e-01 2.193209999999999882e-01 -5.273830000000000462e-01 6.180379999999999763e-01 -7.124999999999999389e-02 -1.503520000000000134e-01 1.142300000000000086e-02 6.904080000000000217e-01 -6.981800000000000506e-02 7.589230000000000143e-01 1.343060000000000087e-01 -4.337840000000000029e-01 -1.108009000000000022e+00 4.360209999999999919e-01 4.692020000000000080e-01 2.202700000000000144e-02 1.111909999999999982e-01 -1.787130000000000107e-01 -6.795750000000000401e-01