8.610259091950847932e+00 5.644682128322486836e-01 -4.132891531776847205e-01 5.644682128322486836e-01 9.707109455565724687e+00 1.518756828455119501e-01 -4.132891531776847205e-01 1.518756828455119501e-01 5.938614536914614384e+00
2.823578343872237273e+00 -5.950419677754402725e-01 -1.669616002390263532e+00 -5.950419677754402725e-01 2.672820738687915920e+00 4.952889725285062328e-01 -1.669616002390263532e+00 4.952889725285062328e-01 -5.725163882027952678e-01
6.988440973718733629e-01 -6.161289741275672860e-01 -2.361016466686316040e+00 -6.161289741275672860e-01 7.605223841626115311e-01 1.803323149374215006e+00 -2.361016466686316040e+00 1.803323149374215006e+00 3.880176410590246983e-02
-4.317491754902633261e+00 -3.672551575287219539e-01 -1.516018547897356683e+00 -3.672551575287219539e-01 -2.880751075059203359e+00 3.202786138661646853e-01 -1.516018547897356683e+00 3.202786138661646853e-01 -3.002928059077225154e+00
1.467052183373721119e+00 7.998428955337788526e-01 2.346358234113796737e-01 7.998428955337788526e-01 8.680807677403370448e-01 3.609731695019357200e+00 2.346358234113796737e-01 3.609731695019357200e+00 1.942235755218788995e+00
8.901914652843653242e-01 -6.070497734568240933e-01 -1.781156913342474724e+00 -6.070497734568240933e-01 3.574984394520939190e+00 2.227450711971491193e-01 -1.781156913342474724e+00 2.227450711971491193e-01 -2.948237624948272462e+00
2.931139506802842742e+00 2.431756738233157300e+00 2.407496190491150045e+00 2.431756738233157300e+00 7.008019877356941763e+00 3.934492679922997116e+00 2.407496190491150045e+00 3.934492679922997116e+00 6.089086619195138717e+00
3.890017559063585928e+00 -1.121904765510312707e+00 -1.805562064359225727e-01 -1.121904765510312707e+00 3.262285893213682897e+00 7.320277327833403513e-02 -1.805562064359225727e-01 7.320277327833403513e-02 2.448694155173785969e+00
-3.058497435176155577e+00 4.907806730843760068e-01 2.117744024123193292e+00 4.907806730843760068e-01 -1.401419110369469812e-01 3.284816637869538147e-01 2.117744024123193292e+00 3.284816637869538147e-01 -2.804629216035527950e+00
3.009149915335334047e+00 -2.760535105069359840e+00 -1.889150545489917565e+00 -2.760535105069359840e+00 4.811237721327414008e+00 1.226759578595592481e+00 -1.889150545489917565e+00 1.226759578595592481e+00 -6.472464315813959423e+00
-6.462805858704316897e+00 4.994981828421284353e-01 1.370781901717031737e+00 4.994981828421284353e-01 -9.568466005384091977e-01 -3.832013616816653534e-01 1.370781901717031737e+00 -3.832013616816653534e-01 -2.908753643762351793e+00
5.109598829919739238e+00 1.501712308242668659e+00 6.112614131966130904e-01 1.501712308242668659e+00 -1.387173890454604930e+00 8.593580592967658971e-01 6.112614131966130904e-01 8.593580592967658971e-01 2.140539327881343823e+00
3.491448707458435496e-01 4.944141870591989840e-01 1.564178483199403003e+00 4.944141870591989840e-01 -8.741408267317984926e-01 1.421928374216071544e-01 1.564178483199403003e+00 1.421928374216071544e-01 1.160197337136617879e+00
9.989728271390969638e+00 1.026375217655731475e+00 -2.333127188278568021e+00 1.026375217655731475e+00 8.611464130477067158e+00 -6.393198592085802545e-01 -2.333127188278568021e+00 -6.393198592085802545e-01 -2.591697701100828533e-02
3.815599720675537654e+00 1.351371844179116155e-01 4.733817849916930887e-01 1.351371844179116155e-01 2.805828344701084998e+00 -5.365879912320260098e-02 4.733817849916930887e-01 -5.365879912320260098e-02 5.252352628223344588e+00
5.630961083955475510e-02 -3.333764140913360041e-01 2.947295772739446207e+00 -3.333764140913360041e-01 3.379960057501044807e-02 -2.289543737181759298e+00 2.947295772739446207e+00 -2.289543737181759298e+00 -3.016321612489969439e-01
6.999528881505207245e+00 -4.227985294026903040e-01 2.904624482266715990e+00 -4.227985294026903040e-01 5.943396256465207195e+00 -3.103436813015601370e+00 2.904624482266715990e+00 -3.103436813015601370e+00 5.185392369483515118e+00
-3.315847369597660244e+00 5.589402371078142640e-01 -1.933444462144000564e-01 5.589402371078142640e-01 -6.711166727808441479e+00 -2.494489645492415364e-01 -1.933444462144000564e-01 -2.494489645492415364e-01 -5.285712535719274463e+00
-4.295050639842054249e-03 4.232277786030019251e-01 6.544329841685404547e-01 4.232277786030019251e-01 -2.674526781228294681e+00 -6.372202243740013872e-01 6.544329841685404547e-01 -6.372202243740013872e-01 -1.428391091857256878e+00
7.463933561807934991e-01 2.522706217435687348e-01 2.161104741291960618e+00 2.522706217435687348e-01 5.129274478988170571e+00 -1.814113364722464761e+00 2.161104741291960618e+00 -1.814113364722464761e+00 4.056779975527282645e+00
-2.092365041577533891e+00 9.902361615608250567e-01 1.142720335380945862e+00 9.902361615608250567e-01 -1.706700294873429780e+00 3.257981211623662166e+00 1.142720335380945862e+00 3.257981211623662166e+00 -1.306057939065931039e+00
1.672136315564163311e+00 2.561366006348354540e-01 6.862778356607042163e-01 2.561366006348354540e-01 1.150430283566237666e+00 1.134665324659696717e+00 6.862778356607042163e-01 1.134665324659696717e+00 1.867461028836012282e+00
1.381668243539449925e+01 -8.433840894068145300e-01 3.416623326882626266e+00 -8.433840894068145300e-01 1.417967582210803101e+01 -1.886644386343538260e+00 3.416623326882626266e+00 -1.886644386343538260e+00 1.148453001970868925e+01
-1.662970070319943705e+00 -1.457501568229815581e+00 -2.064954608527288737e+00 -1.457501568229815581e+00 -1.641574270834904592e-01 -8.788816083307184057e-02 -2.064954608527288737e+00 -8.788816083307184057e-02 -2.293091467489092317e-01
1.957911316259701273e+00 4.033291685298859286e-01 8.364401620743771026e-01 4.033291685298859286e-01 2.205156725842174925e+00 3.045684516811795750e-01 8.364401620743771026e-01 3.045684516811795750e-01 8.747056986143956214e-01
-3.346582353997434200e+00 -3.082705356255759921e-01 1.922229775913634864e+00 -3.082705356255759921e-01 -3.377755878840381421e+00 -7.683407060557436719e-01 1.922229775913634864e+00 -7.683407060557436719e-01 -3.803829189910353126e+00
-5.086279638228524691e-01 -9.930320446281489799e-01 -2.279702597076449511e+00 -9.930320446281489799e-01 -2.455365656504005845e+00 6.566450677966824134e-01 -2.279702597076449511e+00 6.566450677966824134e-01 -1.121886041803803247e+00
6.674781696691462152e+00 1.812634284317944100e-01 -1.803399694864090907e+00 1.812634284317944100e-01 6.756295872934809488e+00 6.260649990822209077e-01 -1.803399694864090907e+00 6.260649990822209077e-01 3.431056988526164808e+00
3.718025477051971173e+00 1.187743828228618806e-02 9.551108185585611698e-01 1.187743828228618806e-02 5.217097710589475135e+00 -2.894531108003863817e+00 9.551108185585611698e-01 -2.894531108003863817e+00 2.787098927003984983e+00
1.289467893247623120e+00 1.995486475482866340e-01 -1.948168572537220200e+00 1.995486475482866340e-01 3.309670418365187050e+00 9.614034129725040900e-01 -1.948168572537220200e+00 9.614034129725040900e-01 -1.398862486739252675e-01
1.423879227109521572e+01 1.005254879806228185e+00 3.118458587633435641e+00 1.005254879806228185e+00 1.682605400946096452e+01 -2.732145747492018106e+00 3.118458587633435641e+00 -2.732145747492018106e+00 1.435809468191277816e+01
1.015523245644244232e+00 -7.443086847883447765e-01 -1.796094772900822756e+00 -7.443086847883447765e-01 2.090254471982210926e+00 -9.286486972526679651e-01 -1.796094772900822756e+00 -9.286486972526679651e-01 -3.142291582146385931e-01
-5.167070275190294382e+00 -6.115995079435163628e-01 8.257535387537363603e-01 -6.115995079435163628e-01 -3.855009187451100328e+00 -6.232523906019882265e-01 8.257535387537363603e-01 -6.232523906019882265e-01 -3.547333732192798017e+00
-4.662852051975304946e+00 7.472901753399453506e-01 -7.703216789901790387e-03 7.472901753399453506e-01 -4.366907863148027147e+00 1.044724276212235070e+00 -7.703216789901790387e-03 1.044724276212235070e+00 -5.289794998234897072e+00
-1.006423542096881230e+00 1.141047651014696740e+00 -1.002884912144016427e+00 1.141047651014696740e+00 -4.500071372982919482e-01 -1.995312584038533510e+00 -1.002884912144016427e+00 -1.995312584038533510e+00 1.382980868184396250e+00
2.743115661806598382e+00 -5.053329657507305006e-02 -9.154260211465360397e-01 -5.053329657507305006e-02 1.843498030516606434e+00 -7.124895703582253548e-01 -9.154260211465360397e-01 -7.124895703582253548e-01 4.267792468955626362e+00
-2.679926782237768368e+00 3.783849220642122035e-01 1.260717588043310133e+00 3.783849220642122035e-01 -3.171072852472096137e+00 -1.339174006741809253e-01 1.260717588043310133e+00 -1.339174006741809253e-01 -5.244454457728898733e-01
-2.441000962222266590e+00 -5.754175434138239509e-02 1.375919606855852129e+00 -5.754175434138239509e-02 9.296541343420287040e-01 1.157921141043653790e-01 1.375919606855852129e+00 1.157921141043653790e-01 -1.628045907022461969e-03
6.442893817790095845e+00 -1.008415247124373915e+00 3.192185749869009381e+00 -1.008415247124373915e+00 5.888466432187011712e-01 -2.448582809575486685e+00 3.192185749869009381e+00 -2.448582809575486685e+00 4.002377699602379657e+00
1.242619837450727571e+00 -9.419804554755972781e-01 -2.245641630928225219e+00 -9.419804554755972781e-01 7.345065102750385211e-02 1.773868189417316721e+00 -2.245641630928225219e+00 1.773868189417316721e+00 3.120356974072611589e+00
-5.827894853021259314e-01 -1.613897694301188679e+00 -2.309022872217634692e+00 -1.613897694301188679e+00 -1.371698207728030194e+00 -7.751487154713870842e-01 -2.309022872217634692e+00 -7.751487154713870842e-01 5.874784761113196474e-01
-9.286823342711159057e-01 -6.618308421069000191e-01 6.614085787270131966e-01 -6.618308421069000191e-01 -1.721139215110544907e+00 -1.000408952817517516e+00 6.614085787270131966e-01 -1.000408952817517516e+00 -1.333909788876561864e+00
6.784351598720694376e+00 -2.773449140022908321e-01 1.914351347628150180e+00 -2.773449140022908321e-01 8.456345392754565538e+00 -2.867807083879585051e+00 1.914351347628150180e+00 -2.867807083879585051e+00 6.916927656291461446e+00
-1.372922644004150206e+00 2.174132571348502962e-01 -8.103667198181338516e-02 2.174132571348502962e-01 -1.200409677970003974e+00 1.679345697972556062e+00 -8.103667198181338516e-02 1.679345697972556062e+00 -2.159024805177915507e+00
-5.008609044006548938e-01 1.021061664751224951e+00 -4.286299605887376463e-01 1.021061664751224951e+00 -1.665734263104242481e-03 -4.116109864299432597e-01 -4.286299605887376463e-01 -4.116109864299432597e-01 1.079400756348093848e+00
5.603731582707336401e-01 -9.705209551614644159e-01 -2.330012542018012667e+00 -9.705209551614644159e-01 -1.754593035019656744e-01 8.665598773599495486e-01 -2.330012542018012667e+00 8.665598773599495486e-01 -1.737195038840221972e+00
-3.456900773741153010e+00 2.373510132371074555e+00 1.016038271309732011e+00 2.373510132371074555e+00 -2.123231762983492033e+00 3.850365329883260301e+00 1.016038271309732011e+00 3.850365329883260301e+00 -6.308512267370942617e-01
3.896268536919400560e+00 -5.278710278692463342e-01 -1.381427251619676833e+00 -5.278710278692463342e-01 3.862868957638287082e+00 -1.389818862661995613e+00 -1.381427251619676833e+00 -1.389818862661995613e+00 2.824647715156738847e+00
-8.333592142320030760e+00 3.008076247903602174e-01 -2.051078175522779157e-01 3.008076247903602174e-01 -8.963573588129435166e+00 -3.039042006560729869e-01 -2.051078175522779157e-01 -3.039042006560729869e-01 -7.029319592011004758e+00
-1.452858652291062036e+00 3.811786796542112055e-01 -1.684791167120438748e+00 3.811786796542112055e-01 -6.004299760277443943e-01 6.063407028378646479e-03 -1.684791167120438748e+00 6.063407028378646479e-03 -1.747420092059175589e+00
-3.733066400664715623e+00 7.493572222400483041e-01 4.394729416388480914e-01 7.493572222400483041e-01 -4.144720888802209124e+00 2.438687075919407032e+00 4.394729416388480914e-01 2.438687075919407032e+00 -4.385230863685094072e+00
2.054739326493932872e+00 8.339810157253968459e-02 8.885254501507368063e-01 8.339810157253968459e-02 3.346255142875902422e-01 -2.122475755348013582e+00 8.885254501507368063e-01 -2.122475755348013582e+00 3.236848394641397508e+00
-4.003633254208399883e+00 8.831412214852080167e-01 -2.638132069010629799e+00 8.831412214852080167e-01 -4.138890546472728360e+00 3.798603269102014957e-01 -2.638132069010629799e+00 3.798603269102014957e-01 -5.010147696460014899e+00
3.165284247253130623e-01 -9.941375362693097850e-01 8.422676623631393245e-01 -9.941375362693097850e-01 1.059708615667921627e+00 1.221532945954627358e+00 8.422676623631393245e-01 1.221532945954627358e+00 -9.796010074458180172e-01
1.887670198055773962e+00 -2.197691138483965911e-01 -3.106822985304761531e+00 -2.197691138483965911e-01 3.085075866799864563e+00 -3.788939533852133668e-01 -3.106822985304761531e+00 -3.788939533852133668e-01 -8.488142748465142898e-03
2.778116020754489046e+00 1.267584145513186433e-01 -3.161939924029863569e+00 1.267584145513186433e-01 2.529651272405866180e+00 1.958401274703373274e-01 -3.161939924029863569e+00 1.958401274703373274e-01 1.346759037155985439e+00
4.526491903458050636e+00 -4.801547670670512358e-01 2.625766863231996595e+00 -4.801547670670512358e-01 1.295076619900704662e+00 1.040744407616060352e+00 2.625766863231996595e+00 1.040744407616060352e+00 3.931400765831777999e+00
8.523875587327415460e+00 9.793289354494463250e-01 9.578428274705580447e-02 9.793289354494463250e-01 7.800176697157213290e+00 -2.484232612810626795e-01 9.578428274705580447e-02 -2.484232612810626795e-01 5.209615758475394820e+00
-1.639838840950623045e+00 -3.975466113234927823e-01 2.227962758176794678e-01 -3.975466113234927823e-01 -1.321971183728236077e-01 4.309009327821684110e+00 2.227962758176794678e-01 4.309009327821684110e+00 1.405213883594211177e+00
1.701188301981784390e+00 -3.115854515833463845e-01 2.226888922406542903e+00 -3.115854515833463845e-01 -3.841838451356920092e-02 -1.703337755006016252e+00 2.226888922406542903e+00 -1.703337755006016252e+00 9.312431108414671588e-01
-2.633105835324554000e-01 -9.683493870992177302e-03 -1.630692003068385354e+00 -9.683493870992177302e-03 -1.135287556527377895e+00 -1.668926550387767604e-01 -1.630692003068385354e+00 -1.668926550387767604e-01 3.422795252551418699e+00
-3.447615027802179544e+00 -6.541529093353237734e-01 -2.227679058028812165e+00 -6.541529093353237734e-01 -4.358282963366328921e+00 2.123911585023853466e+00 -2.227679058028812165e+00 2.123911585023853466e+00 5.691367740038075912e-02
-3.629726033847994859e+00 5.764991261575539427e-01 -2.349063021893154080e+00 5.764991261575539427e-01 -5.976867446058558020e-01 3.976671414241194080e-01 -2.349063021893154080e+00 3.976671414241194080e-01 -2.976997649820875905e-02
-3.364781681240746725e+00 -9.254673843164861191e-01 -8.151934532095028718e-01 -9.254673843164861191e-01 -1.959018084218550504e+00 5.580743426284618947e-01 -8.151934532095028718e-01 5.580743426284618947e-01 -8.645211520298859975e-01
-4.193736399417839600e+00 3.463011125006146274e-01 -1.848692050550885480e+00 3.463011125006146274e-01 -5.486524167273231001e+00 -5.236117570759398765e-01 -1.848692050550885480e+00 -5.236117570759398765e-01 -4.191461791124437397e+00
-3.982504385637543276e+00 1.708386665052756381e+00 2.628188309587885740e+00 1.708386665052756381e+00 3.103542367947311309e+00 -9.538857787709765779e-01 2.628188309587885740e+00 -9.538857787709765779e-01 1.424785625081659068e+00
4.876829671195030080e+00 -1.585592013194877303e+00 -1.030965942917911660e+00 -1.585592013194877303e+00 5.338000789614219421e+00 1.102124960464286652e+00 -1.030965942917911660e+00 1.102124960464286652e+00 3.773342821460594076e-01
-7.608540199206756949e-01 4.589899741703454827e-01 -3.008539665292050413e-01 4.589899741703454827e-01 3.776698677900814510e-02 3.185005493268152410e+00 -3.008539665292050413e-01 3.185005493268152410e+00 -1.828474087342599086e+00
3.820471650845061795e+00 -9.386347179202366720e-01 2.653910347520498814e+00 -9.386347179202366720e-01 -2.268558403023999581e+00 -1.639350290396105692e+00 2.653910347520498814e+00 -1.639350290396105692e+00 3.893244859447343220e+00
-6.046648914284216580e+00 -5.940796458942120273e-01 -2.576780023882570436e+00 -5.940796458942120273e-01 -2.018649581021003669e+00 1.113093516316035814e+00 -2.576780023882570436e+00 1.113093516316035814e+00 -9.373026296310111860e-01
1.314068404350604347e+00 -3.670644138019318881e-01 -2.582131454094314993e+00 -3.670644138019318881e-01 3.551055041700953652e+00 -3.872863738459155214e-01 -2.582131454094314993e+00 -3.872863738459155214e-01 1.688721681535474417e+00
-3.055638491132104395e+00 6.598353419260886144e-01 7.642124467958330003e-01 6.598353419260886144e-01 -2.078097499198358289e+00 3.010761602542684656e+00 7.642124467958330003e-01 3.010761602542684656e+00 -1.130446428561826977e+00
-2.740726393608762468e+00 -5.088987135962358410e-01 -9.928261332676847628e-01 -5.088987135962358410e-01 -1.061901380274852036e+00 9.755608196086184014e-01 -9.928261332676847628e-01 9.755608196086184014e-01 -1.106863956117113856e+00
4.053751564322582546e+00 -7.463573858881666911e-01 -1.003611356415830658e+00 -7.463573858881666911e-01 4.724107519478630834e+00 -6.687913758074103265e-01 -1.003611356415830658e+00 -6.687913758074103265e-01 5.406712515729327428e+00
2.674660764121190581e+00 -5.920755257640452074e-01 -2.997184020732003074e+00 -5.920755257640452074e-01 5.318008789244554890e+00 4.811366964139054958e-01 -2.997184020732003074e+00 4.811366964139054958e-01 4.268458850068649113e+00
2.394597543799990458e+00 -4.841831824807624890e-02 2.935792524948190874e+00 -4.841831824807624890e-02 4.436320820211564708e+00 1.368411882010948655e-01 2.935792524948190874e+00 1.368411882010948655e-01 3.151339890956517564e+00
-1.260743430831581469e+00 1.057884545366264140e-01 -7.534677005120533899e-02 1.057884545366264140e-01 -5.629898737840557249e-03 1.197447425502639717e+00 -7.534677005120533899e-02 1.197447425502639717e+00 -3.750116028918041855e-01
-2.355552072312165013e+00 5.014277027247706631e-01 5.450251202534406314e-01 5.014277027247706631e-01 -2.383512669214246316e+00 3.815928295914842224e-03 5.450251202534406314e-01 3.815928295914842224e-03 -2.238546077349852670e+00
1.010395044139256981e+01 -7.227826913841577383e-01 3.444364733495429487e+00 -7.227826913841577383e-01 1.016849258666825406e+01 -2.739988677646032489e+00 3.444364733495429487e+00 -2.739988677646032489e+00 9.149958827898503344e+00
-2.234122602209515751e+00 -6.055899110634620497e-01 -1.893553665897685923e+00 -6.055899110634620497e-01 -2.099259182800401469e+00 1.702107065879586711e-01 -1.893553665897685923e+00 1.702107065879586711e-01 1.740261011711427663e+00
1.537005378578387926e+00 -7.359637714617782711e-01 -2.024362755943080572e+00 -7.359637714617782711e-01 6.436285688426846896e+00 -6.901760265973618802e-01 -2.024362755943080572e+00 -6.901760265973618802e-01 7.177426487299537250e+00
2.756254423910070805e+00 1.701611726941936631e+00 7.971918460087534797e-01 1.701611726941936631e+00 3.482256476140408452e+00 2.535011222064751379e+00 7.971918460087534797e-01 2.535011222064751379e+00 3.726093414433495177e+00
5.102057589202370069e-01 -1.160352237518195162e+00 6.497795187026192965e-01 -1.160352237518195162e+00 -1.991089324268311977e-01 -2.827770409869205803e-01 6.497795187026192965e-01 -2.827770409869205803e-01 -3.022624861871239244e+00
-3.126508757178656506e+00 1.084344566255918269e-01 6.333539619217617433e-01 1.084344566255918269e-01 1.024468451746055386e+00 1.127712115966186923e+00 6.333539619217617433e-01 1.127712115966186923e+00 -2.650046620370732353e-01
-2.276448044131415660e+00 -8.559142162900104100e-01 -1.296802449190254114e+00 -8.559142162900104100e-01 -8.134146514350790724e-01 4.137997345344320288e-01 -1.296802449190254114e+00 4.137997345344320288e-01 1.161517136766864633e+00
5.257208612830895911e-01 -6.634437683173547429e-01 5.909197501624104815e-02 -6.634437683173547429e-01 2.465549828092755913e+00 4.457184623536241119e+00 5.909197501624104815e-02 4.457184623536241119e+00 3.557675072576233166e+00
-2.039908793637601025e+00 -1.413716417211100529e+00 -2.589769176075328971e+00 -1.413716417211100529e+00 9.423077057886574126e-01 -2.691977391547876186e-01 -2.589769176075328971e+00 -2.691977391547876186e-01 2.441905230912661817e-01
-3.535589932202480301e-01 -3.105558043916689104e-01 2.016588781855277901e+00 -3.105558043916689104e-01 4.421448746668438901e+00 -1.124059598951425265e+00 2.016588781855277901e+00 -1.124059598951425265e+00 7.537516334820058006e-01
-4.252733885407269376e+00 8.986341606150933803e-01 7.627541643080357758e-01 8.986341606150933803e-01 1.593387420790538966e+00 2.693624101036713903e+00 7.627541643080357758e-01 2.693624101036713903e+00 1.115781377677669051e+00
2.835221141928499500e-01 7.322393432020648518e-01 2.327601306842908890e+00 7.322393432020648518e-01 -1.433633889998292998e+00 2.654226507811493718e+00 2.327601306842908890e+00 2.654226507811493718e+00 6.370255394968023233e-02
5.027306135171078161e+00 -2.779140658945575271e-01 -4.293822856652345976e+00 -2.779140658945575271e-01 6.150601915372957862e+00 1.538935903595975152e-01 -4.293822856652345976e+00 1.538935903595975152e-01 4.141228829815290169e+00
1.183851714941796018e+01 1.280734970336722123e+00 -1.879305877177023465e+00 1.280734970336722123e+00 1.217237446784798394e+01 1.113608737800518278e-01 -1.879305877177023465e+00 1.113608737800518278e-01 8.370456027968234736e+00
1.114240113968379964e+00 -5.819712406231205559e-01 -1.451220414908805711e+00 -5.819712406231205559e-01 -4.613455443521934818e+00 -1.269872994190407001e+00 -1.451220414908805711e+00 -1.269872994190407001e+00 -8.975987648722780765e-01
-4.853622153381365045e+00 7.508049147533069068e-01 1.284745116013781940e+00 7.508049147533069068e-01 8.789528138312505123e-02 1.664907338208407195e+00 1.284745116013781940e+00 1.664907338208407195e+00 5.897606823425908251e-01
-3.023017134119240001e+00 3.739057148959782362e-01 -1.751168071438005569e+00 3.739057148959782362e-01 -1.430191712032327089e+00 -1.610452647766258683e-01 -1.751168071438005569e+00 -1.610452647766258683e-01 -1.722478190137988863e+00
4.859969498471704563e-01 -1.146073404218908021e+00 -2.271603831860303124e+00 -1.146073404218908021e+00 2.126296840083062856e-01 -1.152781970007502155e+00 -2.271603831860303124e+00 -1.152781970007502155e+00 2.247011518553568621e+00
5.577307861884955642e+00 1.337711491545256814e+00 2.076592734487848979e+00 1.337711491545256814e+00 3.091499820872010140e+00 3.318899024906848627e+00 2.076592734487848979e+00 3.318899024906848627e+00 1.000223795516914205e+00
-4.329714727207968572e+00 8.398982149925589002e-01 1.738362682023058214e+00 8.398982149925589002e-01 1.853719018917394878e+00 -4.838637621116981258e-01 1.738362682023058214e+00 -4.838637621116981258e-01 3.514559715116287175e-01
1.913847930876508618e+00 -2.958050071624492294e-01 1.133967395715833604e+00 -2.958050071624492294e-01 4.234469106019202872e-02 1.493461004461000829e-01 1.133967395715833604e+00 1.493461004461000829e-01 2.906285237015660883e+00
-1.062300499421616307e+00 1.031083222515027410e-02 2.014416590220716952e+00 1.031083222515027410e-02 -5.501123988679971433e+00 -1.734707490463169299e-01 2.014416590220716952e+00 -1.734707490463169299e-01 -2.768127698731481789e-01
7.073798458079778584e+00 -7.515579804484991966e-01 1.962883707382790721e+00 -7.515579804484991966e-01 6.989353995516929707e+00 -3.045222510350471090e+00 1.962883707382790721e+00 -3.045222510350471090e+00 4.150260848373808820e+00
-1.161768565121825025e+00 4.191054189720848644e-01 2.020409824395493992e+00 4.191054189720848644e-01 -5.702102414891534465e-01 -8.220295851665397890e-01 2.020409824395493992e+00 -8.220295851665397890e-01 -9.142968889152039980e-01
-1.974582586757114733e+00 2.160783009705077862e-01 5.278391623814657763e-01 2.160783009705077862e-01 -2.647898679606093708e+00 3.486894564365019544e+00 5.278391623814657763e-01 3.486894564365019544e+00 -2.538930084453919989e+00
-2.804283521450354311e+00 1.203055835018060460e+00 1.109331954167951828e+00 1.203055835018060460e+00 -2.028534002105410572e+00 2.582900143398778159e+00 1.109331954167951828e+00 2.582900143398778159e+00 -3.223966701119385103e+00
1.743184612160961100e+00 3.553510600654231633e-01 -1.607222891085861916e+00 3.553510600654231633e-01 -2.833126512023354415e+00 -3.933138502330003616e-01 -1.607222891085861916e+00 -3.933138502330003616e-01 2.528233784719618349e+00
-4.072595681345497098e+00 1.095463305039833912e+00 -1.707598349957935246e+00 1.095463305039833912e+00 -3.511015363100133957e+00 -3.147294412383994100e-01 -1.707598349957935246e+00 -3.147294412383994100e-01 -5.998919843641808747e+00
2.136187606866325250e+00 1.965609797672163150e+00 3.006963158341782738e-01 1.965609797672163150e+00 9.934593132487096190e-02 5.993673258587524089e-01 3.006963158341782738e-01 5.993673258587524089e-01 1.349315645886428161e+00
-2.458813538264176923e+00 -6.234896609721737315e-01 1.299009591230899652e+00 -6.234896609721737315e-01 -2.430569381634230641e+00 -3.055020227809905009e+00 1.299009591230899652e+00 -3.055020227809905009e+00 -5.548143954792610799e+00
5.209828465057457336e+00 -1.604492732173987246e+00 -6.375394389436155329e-01 -1.604492732173987246e+00 2.293103086528809786e+00 5.691524091687315545e-01 -6.375394389436155329e-01 5.691524091687315545e-01 4.725713523271582339e+00
-6.984475534074810810e+00 1.156952758698849504e+00 7.056737252124113402e-01 1.156952758698849504e+00 6.476321134911843247e-01 3.259581800391871398e-01 7.056737252124113402e-01 3.259581800391871398e-01 -7.890135157773932040e-01
5.773493003448160188e+00 1.394115462463533461e+00 1.234498894965131877e+00 1.394115462463533461e+00 4.770029416115263210e+00 3.831765896475840982e+00 1.234498894965131877e+00 3.831765896475840982e+00 5.799501721491622241e+00
5.353049165142518273e-01 1.580225142640347691e-01 -4.054164849501471934e+00 1.580225142640347691e-01 4.871409412558838636e-01 -1.362239920322115605e+00 -4.054164849501471934e+00 -1.362239920322115605e+00 -1.185020394458506487e+00
-8.160586438473435678e+00 9.265351675847430801e-01 1.270321486517593357e+00 9.265351675847430801e-01 -6.204685715184209194e+00 3.563642380134825594e+00 1.270321486517593357e+00 3.563642380134825594e+00 -6.488611524731022762e+00
8.970353144673001822e+00 -2.071720986675354981e-01 1.490247434208280819e-01 -2.071720986675354981e-01 8.024694015895686761e+00 -2.155524603622080981e-01 1.490247434208280819e-01 -2.155524603622080981e-01 1.014302799629751739e+01
-1.625129886177277605e+00 -5.021085416351236258e-02 -2.532528989536694808e-01 -5.021085416351236258e-02 -4.297585130045176727e-01 3.338768454206164638e-01 -2.532528989536694808e-01 3.338768454206164638e-01 -1.491669367577374894e+00
-5.608862798981368414e+00 2.442407335114205047e-01 1.008339311395953564e+00 2.442407335114205047e-01 5.129659599452400798e-01 1.077113756699346281e+00 1.008339311395953564e+00 1.077113756699346281e+00 -1.045297849134689150e+00
7.000397927326172720e+00 -1.102600249809030653e-01 3.122564338784861615e+00 -1.102600249809030653e-01 6.270886009842202569e+00 -1.259251748675429994e+00 3.122564338784861615e+00 -1.259251748675429994e+00 3.240118560382884816e+00
2.994424528955147213e+00 -1.186578755641798155e+00 -1.200163295481995185e+00 -1.186578755641798155e+00 5.122820974725200927e+00 -3.052894789201054393e-01 -1.200163295481995185e+00 -3.052894789201054393e-01 5.287016400193729204e+00
-6.526612080695785245e+00 -6.100656719187134147e-01 5.193206552250618779e-01 -6.100656719187134147e-01 -8.378657774512342726e+00 4.928180523033274252e-01 5.193206552250618779e-01 4.928180523033274252e-01 -8.358140092889852824e+00
5.105981082712921726e+00 3.800488890871456804e-01 -8.327596879225810378e-01 3.800488890871456804e-01 3.139465501270860770e+00 1.110558596527835284e+00 -8.327596879225810378e-01 1.110558596527835284e+00 5.627983848844767323e+00
-7.064603095954414158e+00 2.748727610782660258e-01 -1.352048669156967975e+00 2.748727610782660258e-01 -5.462440383050236825e+00 7.252848536612119812e-01 -1.352048669156967975e+00 7.252848536612119812e-01 -4.213497509879370995e+00
4.381663235222043262e+00 -5.781400226956115440e-02 8.972692597746986243e-01 -5.781400226956115440e-02 3.997025377993450590e+00 -1.553511264203518150e-01 8.972692597746986243e-01 -1.553511264203518150e-01 5.548560207252452692e+00
-7.874361721048566132e-01 9.747868577973471949e-01 6.778556689651542289e-02 9.747868577973471949e-01 -2.197642668213005468e+00 1.702758598612481356e+00 6.778556689651542289e-02 1.702758598612481356e+00 3.792286269687459854e-01
9.868148244671766989e+00 -1.117102002640910197e+00 -3.090673057490002762e+00 -1.117102002640910197e+00 1.214734858578288446e+01 6.970966005780928620e-01 -3.090673057490002762e+00 6.970966005780928620e-01 1.158635058934664386e+01
3.053122808353556206e+00 -8.200140744578983121e-01 5.002527319953065099e-01 -8.200140744578983121e-01 1.210804366844778102e+00 -6.972439655503741562e-01 5.002527319953065099e-01 -6.972439655503741562e-01 1.287311215987177793e+00
4.443420213829115895e+00 1.653516861192731335e+00 -1.139542356123266487e+00 1.653516861192731335e+00 3.620645671813449873e+00 6.279810179527598457e-01 -1.139542356123266487e+00 6.279810179527598457e-01 3.658005293022568161e+00
5.514531393000706494e+00 7.334449758560187549e-01 -2.681075322764105096e+00 7.334449758560187549e-01 4.411893793691062271e+00 2.467588745279468421e-01 -2.681075322764105096e+00 2.467588745279468421e-01 3.585464781437831761e+00
-3.463897255106724415e+00 1.036911346174268722e+00 -1.163460781167710234e+00 1.036911346174268722e+00 -3.683054586449614032e+00 5.068955158036597686e-01 -1.163460781167710234e+00 5.068955158036597686e-01 -3.185984919401223969e+00
3.416352118877064914e+00 5.877325046648019802e-01 -2.235134775725716505e+00 5.877325046648019802e-01 2.624039297200004395e+00 2.127988019523591179e-01 -2.235134775725716505e+00 2.127988019523591179e-01 3.182555905511788463e+00
2.619546132234813474e+00 5.179724102693147314e-01 -1.448967370234105267e+00 5.179724102693147314e-01 6.040391899294450972e+00 8.749512885541341767e-01 -1.448967370234105267e+00 8.749512885541341767e-01 5.293190457274852712e+00