-3.894790348000000080e+01
-3.954415841000000142e+01
-3.778388384000000144e+01
-4.012751956000000320e+01
-3.839200848000000121e+01
-3.899247772999999739e+01
-3.832652044000000302e+01
-4.054949526000000048e+01
-3.680072048000000251e+01
-3.863729838999999799e+01
-3.729266436000000340e+01
-3.833519058000000257e+01
-3.977753323999999679e+01
-3.968807229000000092e+01
-3.960618450999999851e+01
-3.898409886000000313e+01
-3.909707930999999803e+01
-3.805241251000000346e+01
-3.952062777999999810e+01
-3.804169317000000206e+01
-3.815072183000000194e+01
-3.841138061000000192e+01
-3.871043309000000221e+01
-3.883588111000000254e+01
-3.870565570000000122e+01
-3.949537741999999696e+01
-3.804165231999999719e+01
-3.802142199000000033e+01
-3.917329835999999688e+01
-3.970655990000000202e+01
-3.950974198000000115e+01
-3.877474200999999709e+01
-3.977982287999999755e+01
-3.939683769999999896e+01
-3.899110300000000251e+01
-3.797190187999999722e+01
-3.830623057999999759e+01
-3.989087416000000275e+01
-4.009467662000000132e+01
-3.869894233000000128e+01
-3.800088773000000231e+01
-4.053038026000000116e+01
-4.077729758000000260e+01
-3.879080782999999855e+01
-3.967047215000000193e+01
-3.843575005000000289e+01
-3.888164500999999973e+01
-3.878378276000000113e+01
-3.848433485000000331e+01
-3.839853432000000311e+01
-3.974845066000000315e+01
