1.631299999999999972e-01 1.917899999999999938e+00 6.022590000000000110e+00 8.723000000000000198e-02 1.503120000000000012e+00 9.558350000000000790e+00 1.906060000000000088e+00 2.882519999999999971e+00 9.588770000000000238e+00 1.781300000000000106e-01 3.050100000000000033e-01 3.647879999999999789e+00 3.410050000000000026e+00 1.822310000000000096e+00 1.312480000000000091e+00 1.642810000000000104e+00 2.829300000000000148e-01 9.651899999999999924e-01 1.778429999999999955e+00 1.807900000000000063e+00 7.879690000000000083e+00 4.363000000000000211e-02 5.360000000000000181e-03 7.796540000000000248e+00 1.931729999999999947e+00 2.034419999999999895e+00 3.716450000000000031e+00 2.251869999999999816e+00 1.435700000000000032e-01 5.728220000000000312e+00 1.547099999999999920e+00 2.026429999999999954e+00 1.829489999999999839e+01 3.229760000000000186e+00 3.438470000000000137e+00 1.781670000000000087e+01
1.664819999999999967e+00 3.624569999999999848e+00 2.093329999999999913e+00 3.521000000000000241e-01 6.087999999999999662e-02 7.673569999999999780e+00 3.720619999999999816e+00 3.678659999999999819e+00 3.847919999999999785e+00 2.144950000000000134e+00 3.993200000000000083e-01 9.217159999999999798e+00 1.830130000000000035e+00 3.618399999999999839e+00 5.441449999999999676e+00 1.352379999999999916e+00 1.489610000000000101e+00 3.545640000000000125e+00 3.326789999999999914e+00 1.791420000000000012e+00 1.853609999999999980e+00 2.484859999999999847e+00 2.045230000000000103e+00 7.596809999999999619e+00 4.787799999999999834e-01 1.984580000000000011e+00 9.175700000000000855e+00 1.290939999999999976e+00 1.768629999999999924e+00 3.503700000000000148e-01 2.596600000000000019e-01 1.913960000000000106e+00 6.028739999999999988e+00 3.769550000000000178e+00 3.003100000000000214e-01 2.021679999999999922e+01
