6.428266315601733893e+00 2.226801055856878708e+00 4.191990378499787617e+00 6.428266168060005725e+00 2.226800769245747880e+00 8.383970378499775222e+00 5.142632631178267744e+00 4.453604500705917957e+00 8.383970485499842695e+00 5.142618396216909638e+00 2.969074644046764355e+00 6.287980384000096734e+00 2.571318543740797047e+00 2.969072393655737940e+00 2.095990293499969681e+00 7.713932778738187501e+00 4.453607324319890814e+00 4.191990575999994029e+00 3.856962080622535538e+00 7.422686621665436357e-01 2.095990186500254371e+00 5.142632778719995912e+00 4.453604787317049230e+00 4.191990485499855090e+00 5.142618543758989524e+00 2.969074930658579081e+00 2.095990384000108619e+00 1.285661933062263174e+00 7.422658385518878799e-01 6.287980096000103103e+00 7.713932926280267388e+00 4.453607610931705096e+00 5.760000066756937377e-07 3.856966315612566198e+00 2.226808518854037633e+00 4.191990288000332576e+00 3.856961933080455651e+00 7.422683755547290207e-01 6.287980186500242041e+00 1.285662080604343060e+00 7.422661251637024948e-01 2.095990096000115432e+00 2.571318396198717160e+00 2.969072107043923214e+00 6.287980293499957796e+00 3.856966168070838030e+00 2.226808232242906804e+00 8.383970288000320181e+00
6.422716321207114554e+00 2.228741071916084060e+00 4.192710378437090490e+00 6.427026461887845876e+00 2.226381345995908756e+00 1.050378427441388306e-03 2.570959705955160768e+00 3.519647762893692868e-04 8.383830090512077504e+00 5.142098400245105339e+00 2.970474645487646725e+00 6.288980384077513364e+00 2.570958544502630616e+00 2.969342394658218698e+00 2.096610293505759781e+00 3.179853406932043897e-03 3.097042542025423180e-04 4.190590000133106230e+00 3.858602078420421133e+00 7.414786575829731552e-01 2.093410186503962489e+00 5.144762775724018411e+00 4.452544781291465803e+00 4.189700485502348748e+00 5.139008556287260276e+00 2.973394941116475731e+00 2.096280384168415889e+00 1.281631934370129899e+00 7.427158502520644356e-01 6.287930095889030291e+00 1.519705193945764280e-03 8.942239750738044477e-05 8.383500000059626700e+00 3.858016314883085052e+00 2.226558515798975346e+00 4.192100288020195187e+00 3.857171924537693197e+00 7.392983750956498845e-01 6.285780186304569916e+00 1.288582076723420178e+00 7.408761169867356111e-01 2.091630096007851325e+00 2.573648393956589064e+00 2.968332100098048709e+00 6.290660293531368907e+00 3.857636458582605510e+00 2.225318803040586157e+00 7.030287922053095849e-03
6.417186326754798387e+00 2.230661087917924945e+00 4.193420378373729385e+00 6.425796460631877594e+00 2.225961349494098851e+00 2.100378355434324735e-03 2.570619706947264937e+00 6.919657733670416368e-04 8.383680090523355943e+00 5.141568404272950588e+00 2.971874646956869537e+00 6.289990384154580561e+00 2.570588545235440225e+00 2.969602395689723284e+00 2.097230293510513821e+00 6.349854326919893328e-03 6.096951492440138990e-04 4.189190000265188729e+00 3.860242076246979792e+00 7.406986529987189538e-01 2.090840186508354126e+00 5.146892772757065693e+00 4.451494775265881110e+00 4.187410485505526303e+00 5.135408568757832803e+00 2.977694951546032698e+00 2.096560384335707461e+00 1.277611935677996247e+00 7.431658619232166529e-01 6.287880095778310086e+00 3.039705443027276074e-03 1.694180186441414436e-04 8.383020000118593273e+00 3.859066314153603017e+00 2.226308512743912171e+00 4.192210288040058686e+00 3.857371915994931566e+00 7.363283746655947537e-01 6.283580186108546073e+00 1.291502072841792970e+00 7.394861088084013767e-01 2.087290096015587348e+00 2.575958391685789994e+00 2.967582093210906269e+00 6.293330293561393063e+00 3.858306454070020930e+00 2.223848800618054344e+00 1.402028784512842491e-02
6.411716332273457830e+00 2.232571103745620622e+00 4.194130378311797358e+00 6.424566459404934093e+00 2.225551352992289900e+00 3.150378284110975317e-03 2.570289707969096948e+00 1.041966742787879888e-03 8.383510090535670756e+00 5.141028408271418826e+00 2.973264648454432280e+00 6.291010384230610875e+00 2.570198545967898429e+00 2.969862396778592650e+00 2.097860293514563601e+00 9.509855246907786969e-03 9.096860733097036217e-04 4.187790000396918622e+00 3.861882074072482407e+00 7.399186484124135044e-01 2.088300186512745960e+00 5.149002769876130259e+00 4.450474769296295818e+00 4.185150485510050977e+00 5.131838581111959563e+00 2.981954961887832489e+00 2.096850384501319553e+00 1.273641936985862921e+00 7.436158734492478439e-01 6.287830095669348474e+00 4.549705692108829691e-03 2.494136688051203673e-04 8.382540000177209905e+00 3.860076313424121608e+00 2.226058509804946794e+00 4.192320288058513533e+00 3.857571907538186462e+00 7.333883742334885714e-01 6.281410185914573674e+00 1.294392069075206875e+00 7.381361007150883946e-01 2.082980096025002670e+00 2.578268389386317416e+00 2.966822086324447216e+00 6.295990293590733700e+00 3.858966449530172760e+00 2.222368798227964959e+00 2.096028776716808012e-02
6.406316337705396435e+00 2.234451119370830519e+00 4.194830378250276937e+00 6.423356458236743727e+00 2.225161356433799753e+00 4.180378214858973714e-03 2.569979708991985579e+00 1.391967656211421387e-03 8.383310090548691917e+00 5.140488412211487557e+00 2.974634649951311882e+00 6.292040384305273903e+00 2.569788546670980001e+00 2.970112397924827619e+00 2.098500293517226112e+00 1.264985610884732971e-02 1.189677055423913384e-03 4.186390000526579058e+00 3.863542071925600396e+00 7.391486437653249641e-01 2.085800186518525390e+00 5.151092767139964224e+00 4.449504763384073414e+00 4.182900485517290434e+00 5.128318593320962293e+00 2.986164972084512037e+00 2.097140384665273416e+00 1.269711938352481084e+00 7.440858848605494957e-01 6.287760095563162288e+00 6.029705854117856090e-03 2.994094060388794863e-04 8.382060000232717911e+00 3.861046312636592148e+00 2.225788506982077752e+00 4.192430288074193712e+00 3.857751899167809917e+00 7.304783738580631347e-01 6.279260185721947884e+00 1.297252065481006467e+00 7.368460927054292231e-01 2.078720096037464327e+00 2.580548387000476840e+00 2.966032079526428777e+00 6.298630293616967357e+00 3.859626445022164010e+00 2.220898795843345930e+00 2.782028768989145209e-02
6.401016343050964785e+00 2.236301134707165961e+00 4.195510378190225431e+00 6.422166457155624286e+00 2.224801359817260238e+00 5.210378148362034348e-03 2.569679709958232916e+00 1.721968543345681318e-03 8.383070090560694965e+00 5.139938416122177500e+00 2.975994651476532304e+00 6.293080384378900938e+00 2.569338547314957033e+00 2.970342399185106785e+00 2.099170293517113262e+00 1.577985691309043842e-02 1.449668067246138222e-03 4.184980000654519472e+00 3.865212069806335915e+00 7.383886390864771165e-01 2.083340186525340698e+00 5.153162764576535437e+00 4.448594757527165378e+00 4.180690485527928324e+00 5.124868605326796889e+00 2.990304982078022089e+00 2.097430384826905136e+00 1.265851939719803365e+00 7.445558960700490170e-01 6.287670095459441555e+00 7.489705958430493103e-03 3.294052020048718766e-04 8.381570000286155064e+00 3.861966311848710642e+00 2.225518504303646061e+00 4.192550288088113142e+00 3.857901890941498824e+00 7.276183735676591269e-01 6.277140185531685290e+00 1.300062062029463616e+00 7.356060848361049009e-01 2.074530096051584671e+00 2.582808384557643944e+00 2.965222072788509688e+00 6.301240293641129142e+00 3.860266440547051037e+00 2.219438793524295850e+00 3.457028761259461208e-02
6.395836348310165675e+00 2.238121149696578271e+00 4.196170378132346279e+00 6.420986456162282252e+00 2.224471363173064375e+00 6.220378084268196953e-03 2.569409710955264714e+00 2.061969346825810127e-03 8.382780090574438958e+00 5.139368419945093969e+00 2.977324653058433412e+00 6.294140384449772974e+00 2.568858547929206537e+00 2.970562400531092440e+00 2.099860293515261045e+00 1.887985765893327936e-02 1.689659165457388498e-03 4.183580000780035668e+00 3.866902067742303384e+00 7.376486343441112092e-01 2.080960186534226874e+00 5.155192762215571101e+00 4.447754751784986027e+00 4.178500485541944087e+00 5.121488617071059402e+00 2.994354991867679505e+00 2.097730384984846541e+00 1.262061941116501496e+00 7.450359070770627978e-01 6.287570095358866240e+00 8.909706005046823946e-03 3.394011147515333879e-04 8.381070000336816150e+00 3.862816311002781777e+00 2.225228501828384164e+00 4.192670288098201858e+00 3.858031882829525028e+00 7.247983733318846822e-01 6.275070185343453844e+00 1.302822058807651340e+00 7.344460771071155136e-01 2.070410096069414507e+00 2.585038381999417378e+00 2.964372066139030704e+00 6.303830293661500050e+00 3.860886436134210342e+00 2.217998791271498238e+00 4.120028753596129134e-02
6.390796353453620071e+00 2.239901164280335255e+00 4.196820378076659530e+00 6.419836455256364260e+00 2.224171366442480036e+00 7.220378023281380682e-03 2.569169711925383570e+00 2.391970067335605615e-03 8.382430090588552929e+00 5.138788423708905206e+00 2.978634654667307480e+00 6.295230384518926137e+00 2.568318548484703534e+00 2.970762402049855755e+00 2.100570293509929520e+00 2.194985828903133276e-02 1.889650351425173781e-03 4.182170000901761497e+00 3.868612065705183678e+00 7.369186295395943054e-01 2.078640186544500779e+00 5.157192760114067021e+00 4.447004746126459018e+00 4.176360485561057878e+00 5.118198628554104346e+00 2.998315001396119062e+00 2.098030385139802334e+00 1.258361942572303160e+00 7.455359178249095775e-01 6.287440095262827100e+00 1.028970593556645385e-02 3.093971435952351415e-04 8.380570000383336549e+00 3.863596310127475952e+00 2.224928499555608674e+00 4.192800288105144269e+00 3.858131874861616684e+00 7.220283731811316663e-01 6.273030185157584704e+00 1.305532055872561159e+00 7.333860695164095000e-01 2.066390096092322270e+00 2.587228379297477954e+00 2.963472059608384335e+00 6.306380293677045223e+00 3.861486431727001012e+00 2.216558789087688996e+00 4.767028745862404021e-02
6.385906358452657194e+00 2.241631178430096405e+00 4.197450378022833384e+00 6.418716454496269819e+00 2.223921369626189026e+00 8.200377966769015550e-03 2.568959712868941647e+00 2.711970705558780850e-03 8.382010090603040808e+00 5.138188427355916410e+00 2.979904656332863500e+00 6.296340384584640404e+00 2.567728548980393377e+00 2.970942403710322033e+00 2.101330293501470603e+00 2.499985886108103614e-02 2.069641595441479211e-03 4.180760001021416095e+00 3.870352063693920819e+00 7.361986246418514845e-01 2.076410186556514326e+00 5.159152758301395636e+00 4.446354740581295317e+00 4.174260485585600478e+00 5.115008639688507941e+00 3.002155010633633214e+00 2.098340385290073495e+00 1.254761944086857373e+00 7.460559282838814532e-01 6.287290095171673698e+00 1.163970572166903895e-02 2.293932608792274722e-04 8.380050000425383061e+00 3.864276309165098677e+00 2.224598497573075040e+00 4.192930288106514247e+00 3.858201867066093804e+00 7.193183731140325721e-01 6.271040184974761011e+00 1.308162053224194432e+00 7.324260621510597646e-01 2.062470096119250584e+00 2.589388376422449234e+00 2.962512053166861836e+00 6.308900293687432992e+00 3.862076427383471788e+00 2.215138786943843474e+00 5.398028738230226803e-02
6.381176363307627497e+00 2.243311192117521280e+00 4.198050377971220826e+00 6.417616453852626357e+00 2.223711372752534388e+00 9.170377913695425265e-03 2.568779713815315446e+00 3.031971262179006428e-03 8.381510090618585096e+00 5.137568430943470155e+00 2.981154658053732476e+00 6.297490384648282813e+00 2.567068549416978485e+00 2.971102405571905969e+00 2.102120293489181169e+00 2.802985931773787492e-02 2.209632898873815660e-03 4.179330001137632422e+00 3.872112061708513409e+00 7.354886196799067521e-01 2.074270186569915353e+00 5.161062756806233054e+00 4.445814735177832766e+00 4.172210485615903686e+00 5.111928650503641869e+00 3.005885019551881587e+00 2.098650385436695132e+00 1.251261945689539301e+00 7.466059384546622768e-01 6.287110095086092976e+00 1.293970542105114807e-02 1.193895239681490116e-04 8.379520000463614338e+00 3.864866308172993481e+00 2.224258495850391704e+00 4.193080288104034103e+00 3.858221859471981041e+00 7.166783731886355868e-01 6.269100184794964115e+00 1.310722050920246851e+00 7.315860549813579805e-01 2.058660096151920804e+00 2.591508373403356380e+00 2.961502046843487168e+00 6.311390293692992870e+00 3.862636423075301639e+00 2.213728784899376745e+00 6.011028730560832173e-02
6.376626368047204174e+00 2.244951205283878259e+00 4.198630377923207035e+00 6.416546453354807333e+00 2.223551375793173079e+00 1.012037786509628785e-02 2.568649714735480760e+00 3.341971679147888105e-03 8.380930090635203555e+00 5.136918434443248138e+00 2.982374659860307364e+00 6.298660384708818505e+00 2.566338549793755419e+00 2.971242407633241545e+00 2.102960293473059572e+00 3.102985965829796466e-02 2.309624289378974481e-03 4.177900001250057116e+00 3.873922059777282989e+00 7.347986145653199186e-01 2.072240186586443933e+00 5.162932755686975739e+00 4.445404729887732387e+00 4.170200485653688283e+00 5.108948660969782729e+00 3.009495028178520215e+00 2.098980385578631758e+00 1.247881947351325183e+00 7.471759482792035278e-01 6.286900095006101807e+00 2.585512631219899493e+00 4.453561922888592761e+00 8.378970395496049051e+00 3.865346307093815881e+00 2.223888494446975450e+00 4.193230288095630698e+00 3.858201852021229339e+00 7.140883733759165741e-01 6.267210184617178825e+00 1.313212048989390812e+00 7.308760480066209819e-01 2.054970096191015116e+00 2.593588370182501102e+00 2.960422040638944985e+00 6.313840293692359218e+00 3.863176418831868464e+00 2.212338782925949321e+00 6.605028722957788367e-02
6.372256372613691155e+00 2.246531217929851110e+00 4.199180377877428150e+00 6.415506453031835754e+00 2.223451378748106944e+00 1.105037782165531161e-02 2.568559715630493123e+00 3.641971987540783880e-03 8.380240090652549156e+00 5.136248437854193050e+00 2.983564661721512135e+00 6.299880384766598951e+00 2.565528550082052384e+00 2.971352409924035598e+00 2.103840293452071908e+00 3.400985988346519329e-02 2.369615739300163886e-03 4.176450001359043540e+00 3.875782057871556496e+00 7.341186092987748157e-01 2.070310186605416103e+00 5.164772754943275146e+00 4.445124724681285500e+00 4.168240485699304720e+00 5.106088671029232806e+00 3.012965036456186407e+00 2.099320385715220283e+00 1.244601949101943106e+00 7.477759578169210775e-01 6.286640094931682299e+00 2.586712630601071705e+00 4.453341919443976060e+00 8.378410395523241405e+00 3.865706305927214093e+00 2.223488493391165388e+00 4.193390288080952821e+00 3.858131844771887309e+00 7.115683737048998925e-01 6.265370184442419443e+00 1.315622047461002309e+00 7.303060412565560711e-01 2.051390096236865634e+00 2.595628366730508230e+00 2.959262034552550880e+00 6.316260293684847760e+00 3.863676414623793853e+00 2.210958781080925917e+00 7.181028715282332386e-02
6.368076377035760238e+00 2.248061230025730772e+00 4.199710377834916741e+00 6.414496452854691277e+00 2.223401381617335471e+00 1.196037778268878651e-02 2.568519716529024777e+00 3.941972157649719852e-03 8.379450090671651807e+00 5.135538441147281752e+00 2.984714663695394510e+00 6.301150384820236816e+00 2.564618550280814091e+00 2.971432412500286890e+00 2.104790293425513159e+00 3.698985996421525618e-02 2.379607190588989198e-03 4.174980001464611234e+00 3.877692055990983100e+00 7.334486038795878793e-01 2.068490186626831928e+00 5.166562754604504981e+00 4.444984719617224300e+00 4.166320485752733838e+00 5.103358680739686015e+00 3.016315044355169839e+00 2.099680385848179398e+00 1.241441950940689098e+00 7.484059670083988980e-01 6.286350094863536242e+00 2.587872629780130218e+00 4.453051916117505726e+00 8.377820395544240739e+00 3.865936304702212833e+00 2.223068492711986810e+00 4.193560288060331764e+00 3.858011837695283663e+00 7.091083741762692627e-01 6.263570184270001562e+00 1.317952046363754182e+00 7.298860347304798601e-01 2.047930096290156321e+00 2.597628363018706033e+00 2.958012028584988240e+00 6.318640293669775865e+00 3.864156410481159654e+00 2.209598779308308725e+00 7.736028707673227311e-02
6.364086381313764029e+00 2.249541241572201145e+00 4.200210377795674965e+00 6.413506452910092470e+00 2.223431384429198854e+00 1.286037774989589287e-02 2.568529717432131765e+00 4.241972191525835226e-03 8.378530090692514420e+00 5.134788444351890746e+00 2.985834665782640229e+00 6.302460384870416377e+00 2.563618550419415776e+00 2.971492415333653270e+00 2.105800293394419320e+00 3.994985990090020589e-02 2.339598701977601072e-03 4.173480001566056252e+00 3.879662054135210258e+00 7.327885982780509844e-01 2.066790186651042749e+00 5.168302754728363091e+00 4.445004714694864134e+00 4.164450485815343050e+00 5.100738690043448820e+00 3.019525051934203841e+00 2.100050385975437806e+00 1.238391952896939374e+00 7.490759758833450688e-01 6.286020094801997082e+00 2.588962628785747455e+00 4.452701912995574496e+00 8.377210395558675415e+00 3.866036303331386481e+00 2.222598492408756510e+00 4.193750288031716345e+00 3.857841830762041013e+00 7.066983747893409440e-01 6.261820184099243569e+00 1.320202045726318385e+00 7.296260284277082953e-01 2.044600096351570695e+00 2.599588359017013239e+00 2.956662022734207529e+00 6.321010293646459388e+00 3.864606406374587966e+00 2.208248777636438120e+00 8.271028700026906988e-02
6.360286385417971644e+00 2.250961252567897031e+00 4.200700377759017279e+00 6.412546453140341107e+00 2.223521387155356077e+00 1.374037772226116561e-02 2.568599718281413313e+00 4.521972059461283958e-03 8.377490090714124094e+00 5.133998447466963100e+00 2.986924667981196713e+00 6.303840384917136497e+00 2.562508550439104749e+00 2.971512418480816820e+00 2.106890293356719290e+00 4.290985969316798293e-02 2.249590214733848854e-03 4.171960001664083428e+00 3.881712052274861158e+00 7.321285924354319352e-01 2.065220186678069503e+00 5.170022755343874010e+00 4.445194709827133828e+00 4.162630485888869636e+00 5.098248698969190862e+00 3.022605059134556349e+00 2.100440386098383794e+00 1.235461955000069834e+00 7.497959844134189922e-01 6.285640094748100815e+00 2.590012627589250993e+00 4.452281909991790521e+00 8.376570395566913518e+00 3.865996301902160592e+00 2.222108492511180700e+00 4.193950287996806914e+00 3.857611824001184520e+00 7.043483755731391183e-01 6.260120183930474980e+00 1.322372045578423139e+00 7.295360223496089036e-01 2.041380096421792967e+00 2.601518354726486404e+00 2.955212016973234324e+00 6.323340293615248520e+00 3.865026402304080566e+00 2.206908776065314104e+00 8.786028692343367252e-02
6.356696389407139769e+00 2.252341262956134127e+00 4.201160377727015671e+00 6.411616453603135923e+00 2.223691389795125151e+00 1.461037770115202784e-02 2.568719719164998416e+00 4.811971792531295755e-03 8.376300090738174831e+00 5.133168450464178356e+00 2.987974670292430801e+00 6.305270384959714036e+00 2.561278550369258333e+00 2.971502421971484509e+00 2.108050293312744294e+00 4.588985931269821961e-02 2.099581672176766608e-03 4.170400001758711284e+00 3.883842050409584523e+00 7.314685863510472785e-01 2.063790186707911811e+00 5.171692756480411823e+00 4.445564705101787695e+00 4.160850485972944490e+00 5.095888707487539193e+00 3.025545065955543844e+00 2.100860386216333087e+00 1.232641957221408457e+00 7.505559926283286165e-01 6.285200094700810425e+00 2.591012626161618204e+00 4.451781907135179850e+00 8.375900395567924761e+00 3.865796300327110746e+00 2.221568493076626183e+00 4.194170287952847076e+00 3.857321817384392837e+00 7.020483765290311817e-01 6.258450183763014429e+00 1.324462046006436688e+00 7.296460164948143090e-01 2.038290096502873183e+00 2.603408350087669021e+00 2.953642011328359018e+00 6.325670293574425784e+00 3.865406398269637389e+00 2.205578774623961458e+00 9.281028684587418198e-02
6.353306393251887840e+00 2.253671272765255473e+00 4.201600377698635924e+00 6.410706454298829016e+00 2.223941392378212090e+00 1.546037768621652368e-02 2.568909720024838972e+00 5.091971332687519718e-03 8.374960090764005827e+00 5.132278453371506899e+00 2.988994672772341321e+00 6.306780384998127431e+00 2.559918550180147356e+00 2.971452425833314592e+00 2.109300293261459736e+00 4.888985875949091592e-02 1.889573074306352815e-03 4.168800001849941594e+00 3.886072048568756099e+00 7.308185799675319672e-01 2.062490186741957388e+00 5.173332758195674508e+00 4.446134700460096845e+00 4.159120486069637579e+00 5.093648715627868029e+00 3.028355072426872852e+00 2.101300386329617798e+00 1.229931959618651982e+00 7.513760005273902864e-01 6.284710094661493329e+00 2.591952624444798570e+00 4.451181904454767135e+00 8.375200395559986077e+00 3.865426298635260771e+00 2.220988494134115587e+00 4.194410287900169898e+00 3.856961810882291175e+00 6.997883776853578430e-01 6.256820183595825036e+00 1.326472046982039688e+00 7.299460108646916856e-01 2.035310096594128204e+00 2.605268345043216804e+00 2.951932005771923606e+00 6.327980293522974975e+00 3.865756394271608887e+00 2.204258773284039741e+00 9.755028676794250120e-02
6.350106396952218901e+00 2.254951282024284076e+00 4.202020377673524543e+00 6.409816455256091672e+00 2.224281394903934395e+00 1.630037767813836275e-02 2.569169720891014475e+00 5.371970681981052577e-03 8.373440090792302115e+00 5.131328456189297782e+00 2.989984675421611726e+00 6.308360385032379725e+00 2.558418549900445260e+00 2.971372430094646244e+00 2.110650293203195638e+00 5.190985803389801950e-02 1.619564421806321411e-03 4.167150001937773851e+00 3.888412046693975554e+00 7.301585732551786334e-01 2.061330186779190665e+00 5.174952760519389905e+00 4.446914695874401247e+00 4.157420486179985275e+00 5.091538723360800489e+00 3.031025078518837290e+00 2.101770386437906257e+00 1.227331962163479728e+00 7.522460081119711761e-01 6.284150094629467276e+00 2.592842622497545158e+00 4.450501901922892856e+00 8.374450395544817738e+00 3.864886296797234166e+00 2.220358495682965838e+00 4.194680287838089328e+00 3.856531804465854307e+00 6.975583790421190367e-01 6.255230183428222013e+00 1.328412048562927605e+00 7.304560054295331506e-01 2.032450096697278052e+00 2.607098339563401090e+00 2.950072000302562003e+00 6.330290293460213213e+00 3.866066390280620713e+00 2.202938772073888440e+00 1.020902866886029964e-01
6.347116400566179983e+00 2.256201290675170945e+00 4.202420377653752759e+00 6.408956456475274344e+00 2.224711397343950736e+00 1.712037767726951390e-02 2.569499721763172317e+00 5.651969839728180831e-03 8.371750090823059764e+00 5.130308458887825829e+00 2.990934678267897606e+00 6.310030385061432767e+00 2.556758549471751074e+00 2.971242434812845001e+00 2.112110293135882166e+00 5.498985707822289654e-02 1.269555599263597631e-03 4.165440002022247512e+00 3.890882044784538252e+00 7.294885661545709166e-01 2.060330186820316101e+00 5.176532763480582666e+00 4.447914691402750087e+00 4.155750486303966262e+00 5.089548730715010016e+00 3.033565084259776334e+00 2.102280386541529378e+00 1.224841964942964712e+00 7.531960153820712600e-01 6.283520094606782180e+00 2.593682620203408451e+00 4.449701899538874628e+00 8.373660395519685551e+00 3.864166294813383917e+00 2.219678497752884283e+00 4.194970287766254913e+00 3.856031798165162616e+00 6.953683806013656321e-01 6.253650183260891282e+00 1.330272050807501660e+00 7.311960002190465158e-01 2.029700096813337407e+00 2.608908333618846775e+00 2.948051994890565464e+00 6.332610293385807054e+00 3.866336386325694985e+00 2.201628770993508510e+00 1.064302866085393567e-01
6.344336404035372468e+00 2.257401298717233828e+00 4.202810377637953287e+00 6.408106457984701798e+00 2.225241399754942506e+00 1.794037768358976159e-02 2.569909722643073824e+00 5.931968780323252331e-03 8.369840090856634163e+00 5.129218461496112269e+00 2.991854681311199915e+00 6.311790385085970456e+00 2.554928548923089071e+00 2.971072440016934824e+00 2.113680293059850168e+00 5.811985592148981999e-02 8.495466357023571426e-04 4.163670002103693868e+00 3.893502042869469104e+00 7.288185586076604272e-01 2.059490186866720585e+00 5.178102767165972509e+00 4.449164686957387538e+00 4.154120486444687899e+00 5.087688737690496232e+00 3.035975089620666534e+00 2.102830386640839766e+00 1.222451967928082306e+00 7.542160223667150332e-01 6.282820094592402427e+00 2.594472617592118446e+00 4.448791897304080756e+00 8.372810395485272394e+00 3.863236292654332438e+00 2.218938500430260863e+00 4.195290287682928110e+00 3.855461791921463544e+00 6.931983823617308138e-01 6.252100183092463404e+00 1.332052053773809419e+00 7.321859952332319121e-01 2.027060096943674061e+00 2.610688327122831609e+00 2.945841989565642915e+00 6.334930293297355242e+00 3.866556382348785181e+00 2.200308770071924158e+00 1.105702865260322215e-01
4.080689999999999706e+00 8.997500000000000497e-01 6.405780000000000030e+00 3.879389999999999894e+00 2.287189999999999834e+00 3.499999999999999964e-04 1.347960000000000047e+00 8.054299999999999793e-01 2.142389999999999795e+00 1.517130000000000090e+00 2.476090000000000124e+00 8.540409999999999613e+00 5.395419999999999661e+00 4.759660000000000224e+00 8.540530000000000399e+00 2.787539999999999907e+00 4.759030000000000094e+00 8.533680000000000376e+00 4.000659999999999883e+00 2.381069999999999798e+00 4.272859999999999658e+00 5.334179999999999922e+00 9.149000000000000188e-02 4.270660000000000345e+00 2.752069999999999794e+00 3.191450000000000120e+00 6.406270000000000131e+00 2.623040000000000038e+00 3.096080000000000165e+00 2.131400000000000183e+00 5.352459999999999773e+00 3.191949999999999843e+00 6.407210000000000072e+00 6.606340000000000323e+00 2.378530000000000033e+00 4.267579999999999707e+00 1.472259999999999902e+00 9.015800000000000480e-01 6.405000000000000249e+00 5.270789999999999864e+00 4.668520000000000003e+00 4.273500000000000298e+00 5.238290000000000113e+00 3.103310000000000013e+00 2.134739999999999860e+00 3.963270000000000071e+00 8.099600000000000133e-01 2.133449999999999847e+00
4.076469999999999594e+00 8.980299999999999949e-01 6.406320000000000014e+00 4.117210000000000036e+00 2.473640000000000061e+00 8.540660000000000807e+00 1.347679999999999989e+00 8.043400000000000549e-01 2.144130000000000091e+00 6.493560000000000443e+00 2.295040000000000191e+00 4.230000000000000253e-03 5.396300000000000097e+00 4.753289999999999793e+00 8.539780000000000371e+00 2.789499999999999869e+00 4.758980000000000210e+00 8.531829999999999359e+00 3.998460000000000125e+00 2.382610000000000117e+00 4.270809999999999995e+00 5.334430000000000227e+00 9.371000000000000163e-02 4.267590000000000217e+00 2.753730000000000011e+00 3.191019999999999968e+00 6.407239999999999824e+00 2.624229999999999841e+00 3.092389999999999972e+00 2.128449999999999953e+00 5.352949999999999875e+00 3.190329999999999888e+00 6.409539999999999793e+00 6.604899999999999771e+00 2.380720000000000169e+00 4.269000000000000128e+00 1.473540000000000072e+00 9.064799999999999525e-01 6.405310000000000059e+00 5.271349999999999980e+00 4.665499999999999758e+00 4.273349999999999760e+00 5.238990000000000258e+00 3.106030000000000069e+00 2.134479999999999933e+00 3.964620000000000033e+00 8.089699999999999669e-01 2.133070000000000022e+00
4.072289999999999743e+00 8.963200000000000056e-01 6.406839999999999868e+00 4.117029999999999745e+00 2.477300000000000058e+00 8.539979999999999905e+00 1.347429999999999906e+00 8.032700000000000395e-01 2.145830000000000126e+00 6.491550000000000153e+00 2.296720000000000095e+00 9.050000000000000752e-03 5.397160000000000402e+00 4.746950000000000003e+00 8.539049999999999585e+00 2.791430000000000078e+00 4.758939999999999948e+00 8.530020000000000380e+00 3.996249999999999858e+00 2.384119999999999795e+00 4.268760000000000332e+00 5.334649999999999892e+00 9.590999999999999526e-02 4.264549999999999841e+00 2.755380000000000162e+00 3.190599999999999881e+00 6.408190000000000275e+00 2.625449999999999839e+00 3.088729999999999976e+00 2.125509999999999788e+00 5.353469999999999729e+00 3.188709999999999933e+00 6.411850000000000271e+00 6.603460000000000107e+00 2.382909999999999862e+00 4.270430000000000170e+00 1.474820000000000020e+00 9.113999999999999879e-01 6.405619999999999870e+00 5.271899999999999586e+00 4.662490000000000023e+00 4.273189999999999600e+00 5.239679999999999893e+00 3.108740000000000059e+00 2.134209999999999940e+00 3.965969999999999995e+00 8.080000000000000515e-01 2.132690000000000197e+00
4.068139999999999645e+00 8.946300000000000363e-01 6.407350000000000101e+00 4.116839999999999833e+00 2.480900000000000105e+00 8.539320000000000022e+00 1.347210000000000019e+00 8.022299999999999986e-01 2.147489999999999899e+00 6.489519999999999733e+00 2.298340000000000050e+00 1.386000000000000079e-02 5.397999999999999687e+00 4.740649999999999586e+00 8.538330000000000197e+00 2.793350000000000222e+00 4.758910000000000196e+00 8.528230000000000643e+00 3.994019999999999904e+00 2.385609999999999786e+00 4.266709999999999781e+00 5.334850000000000314e+00 9.808000000000000052e-02 4.261549999999999727e+00 2.757010000000000183e+00 3.190189999999999859e+00 6.409110000000000085e+00 2.626689999999999969e+00 3.085090000000000110e+00 2.122599999999999820e+00 5.354009999999999714e+00 3.187100000000000044e+00 6.414139999999999731e+00 6.602020000000000444e+00 2.385089999999999932e+00 4.271860000000000213e+00 1.476110000000000033e+00 9.163000000000000034e-01 6.405929999999999680e+00 5.272450000000000081e+00 4.659489999999999910e+00 4.273039999999999949e+00 5.240370000000000417e+00 3.111429999999999918e+00 2.133960000000000079e+00 3.967330000000000023e+00 8.070399999999999796e-01 2.132309999999999928e+00
4.064049999999999940e+00 8.929700000000000415e-01 6.407840000000000202e+00 4.116640000000000299e+00 2.484440000000000204e+00 8.538660000000000139e+00 1.347029999999999950e+00 8.012000000000000233e-01 2.149090000000000167e+00 6.487490000000000201e+00 2.299910000000000121e+00 1.864000000000000032e-02 5.398810000000000109e+00 4.734420000000000073e+00 8.537639999999999674e+00 2.795240000000000169e+00 4.758890000000000065e+00 8.526479999999999393e+00 3.991779999999999884e+00 2.387070000000000025e+00 4.264680000000000248e+00 5.335009999999999586e+00 1.002200000000000035e-01 4.258580000000000254e+00 2.758630000000000138e+00 3.189820000000000100e+00 6.410020000000000273e+00 2.627940000000000165e+00 3.081479999999999997e+00 2.119720000000000049e+00 5.354569999999999830e+00 3.185500000000000220e+00 6.416400000000000325e+00 6.600590000000000401e+00 2.387259999999999938e+00 4.273299999999999876e+00 1.477400000000000047e+00 9.212000000000000188e-01 6.406229999999999869e+00 5.272990000000000066e+00 4.656520000000000437e+00 4.272890000000000299e+00 5.241050000000000431e+00 3.114090000000000025e+00 2.133719999999999839e+00 3.968700000000000117e+00 8.061099999999999932e-01 2.131909999999999972e+00