-5.951209868000000114e+01
-5.951132345999999984e+01
-5.950901042000000274e+01
-5.950520545999999911e+01
-5.949998206000000067e+01
-5.949343971999999781e+01
-5.948570205000000044e+01
-5.947691017999999730e+01
-5.946721250000000225e+01
-5.945677150000000211e+01
-5.944573940000000078e+01
-5.943427324999999684e+01
-5.942252017999999936e+01
-5.941061710000000318e+01
-5.939868783000000008e+01
-5.938685722999999683e+01
-5.937523747000000185e+01
-5.936390992999999838e+01
-5.935295935999999983e+01
-5.934244130999999811e+01
-5.920506057000000055e+01
-5.920420183000000236e+01
-5.920212479999999999e+01
-5.919885005999999805e+01
-5.919441521000000250e+01
-5.918887629000000317e+01
-5.918230808999999937e+01
-5.917479803999999888e+01
-5.916643281000000343e+01
-5.915730183000000153e+01
-5.914750621999999680e+01
-5.913714871999999900e+01
-5.912632201000000265e+01
-5.911511018000000206e+01
-5.910360722000000067e+01
-5.909189351999999928e+01
-5.908005193999999705e+01
-5.906815173999999757e+01
-5.905625445999999812e+01
-5.904442015000000055e+01
-5.938429217000000193e+01
-5.938304493999999778e+01
-5.938004837999999808e+01
-5.937539284999999722e+01
-5.936918794000000332e+01
-5.936158400000000057e+01
-5.935273778999999905e+01
-5.934284825999999669e+01
-5.933212181999999757e+01
-5.932075834999999842e+01
-5.930895550999999699e+01
-5.929690278000000347e+01
-5.928477512999999988e+01
-5.927273996000000267e+01
-5.926093826000000320e+01
-5.924949064999999848e+01
-5.923849589000000293e+01
-5.922802841000000029e+01
-5.921812426000000329e+01
-5.920879476999999724e+01
-5.938036330999999990e+01
-5.937917880999999909e+01
-5.937619516000000175e+01
-5.937145714999999768e+01
-5.936508060999999969e+01
-5.935719885999999690e+01
-5.934797102000000280e+01
-5.933759659999999769e+01
-5.932628641000000158e+01
-5.931426590000000232e+01
-5.930175263999999657e+01
-5.928896005000000002e+01
-5.927610731000000044e+01
-5.926339415999999716e+01
-5.925100272000000245e+01
-5.923911807999999724e+01
-5.922788832999999897e+01
-5.921744865000000146e+01
-5.920790995000000123e+01
-5.919934351999999933e+01
-5.929904739999999919e+01
-5.929822664000000287e+01
-5.929548307000000307e+01
-5.929088514000000032e+01
-5.928453729000000294e+01
-5.927659452000000329e+01
-5.926722656999999828e+01
-5.925665110999999996e+01
-5.924508008000000103e+01
-5.923275165999999814e+01
-5.921989672000000127e+01
-5.920672918000000351e+01
-5.919348561999999703e+01
-5.918037321999999989e+01
-5.916759093000000291e+01
-5.915532156999999813e+01
-5.914373926999999753e+01
-5.913299325999999922e+01
-5.912322198999999756e+01
-5.911452912000000026e+01
-5.895246370000000269e+01
-5.895158586000000156e+01
-5.894886294999999876e+01
-5.894435113000000115e+01
-5.893820041000000032e+01
-5.893055366000000106e+01
-5.892162471000000323e+01
-5.891160708000000312e+01
-5.890073252999999909e+01
-5.888923340000000195e+01
-5.887736095999999719e+01
-5.886531865999999980e+01
-5.885332425000000001e+01
-5.884156620000000260e+01
-5.883022133000000053e+01
-5.881942616999999984e+01
-5.880929327999999856e+01
-5.879990070000000202e+01
-5.879130250000000046e+01
-5.878350214999999679e+01
-5.944716583999999671e+01
-5.944652997000000028e+01
-5.944414923000000073e+01
-5.944009244000000081e+01
-5.943447091000000171e+01
-5.942742358000000280e+01
-5.941911265000000242e+01
-5.940973389999999910e+01
-5.939947799000000117e+01
-5.938855471000000108e+01
-5.937716651000000212e+01
-5.936551873999999884e+01
-5.935380856999999821e+01
-5.934222484000000009e+01
-5.933094581999999662e+01
-5.932014303999999782e+01
-5.930995940999999760e+01
-5.930053264000000013e+01
-5.929198682999999903e+01
-5.928442301999999842e+01
-5.934901282999999950e+01
-5.934825368999999995e+01
-5.934611939999999919e+01
-5.934266096999999718e+01
-5.933793959999999856e+01
-5.933203118000000131e+01
-5.932502739000000247e+01
-5.931704368999999843e+01
-5.930819886999999824e+01
-5.929863416999999970e+01
-5.928845089000000002e+01
-5.927778883999999948e+01
-5.926678514000000320e+01
-5.925555410999999850e+01
-5.924422011000000055e+01
-5.923288385000000034e+01
-5.922164194999999864e+01
-5.921059851999999779e+01
-5.919982540000000171e+01
-5.918940208000000069e+01
-5.938730514000000227e+01
-5.938685724999999849e+01
-5.938519784999999729e+01
-5.938236961999999863e+01
-5.937842075999999736e+01
-5.937341308999999967e+01
-5.936743849999999867e+01
-5.936061939999999737e+01
-5.935304342999999960e+01
-5.934484711000000345e+01
-5.933613734000000051e+01
-5.932703630999999689e+01
-5.931765953000000025e+01
-5.930812266000000221e+01
-5.929852869999999854e+01
-5.928898587999999847e+01
-5.927958645999999732e+01
-5.927040845999999874e+01
-5.926152504000000221e+01
-5.925300948999999662e+01
-5.944970279999999718e+01
-5.944915507999999704e+01
-5.944657937000000203e+01
-5.944202356000000265e+01
-5.943560046999999713e+01
-5.942745475000000255e+01
-5.941776593000000162e+01
-5.940673587999999938e+01
-5.939459233000000182e+01
-5.938156747000000024e+01
-5.936789512000000002e+01
-5.935381991999999940e+01
-5.933956991000000158e+01
-5.932536218999999988e+01
-5.931141001000000301e+01
-5.929790706000000000e+01
-5.928503573999999787e+01
-5.927295585000000244e+01
-5.926182943999999964e+01
-5.925179170999999911e+01
-5.937830558000000281e+01
-5.937740776999999781e+01
-5.937537286999999964e+01
-5.937223582000000022e+01
-5.936804681000000272e+01
-5.936287825000000140e+01
-5.935680701999999798e+01
-5.934993105000000213e+01
-5.934234587000000261e+01
-5.933414418000000268e+01
-5.932542932999999863e+01
-5.931630012000000107e+01
-5.930686168999999808e+01
-5.929720295999999990e+01
-5.928742167000000052e+01
-5.927758151999999825e+01
-5.926776966999999985e+01
-5.925804928000000160e+01
-5.924847705999999903e+01
-5.923910587999999677e+01
-5.941813709000000188e+01
-5.941713101999999935e+01
-5.941472310000000334e+01
-5.941096270999999973e+01
-5.940591520000000259e+01
-5.939967836000000290e+01
-5.939236834999999814e+01
-5.938410191999999910e+01
-5.937502957000000237e+01
-5.936529606999999942e+01
-5.935505325999999826e+01
-5.934443708999999956e+01
-5.933360413999999849e+01
-5.932269916999999992e+01
-5.931185783000000100e+01
-5.930120460999999921e+01
-5.929086154000000164e+01
-5.928095549999999747e+01
-5.927159134000000051e+01
-5.926286591000000215e+01
-5.941211435000000307e+01
-5.941245579000000276e+01
-5.941091244999999788e+01
-5.940752627999999902e+01
-5.940237426000000198e+01
-5.939559159000000221e+01
-5.938733270000000175e+01
-5.937778672999999685e+01
-5.936716026999999940e+01
-5.935568740000000076e+01
-5.934359795999999676e+01
-5.933112758000000042e+01
-5.931849299000000286e+01
-5.930591722999999860e+01
-5.929359966999999898e+01
-5.928172509000000190e+01
-5.927047138999999731e+01
-5.925998805999999774e+01
-5.925041157999999797e+01
-5.924184831000000173e+01
-5.930546420999999668e+01
-5.930566085000000243e+01
-5.930445847000000015e+01
-5.930190600000000245e+01
-5.929808004000000210e+01
-5.929308187000000174e+01
-5.928703978000000063e+01
-5.928008247000000353e+01
-5.927236595000000108e+01
-5.926403891999999729e+01
-5.925524286999999646e+01
-5.924613114999999652e+01
-5.923683616999999657e+01
-5.922750228999999678e+01
-5.921823890999999662e+01
-5.920916377999999725e+01
-5.920037298999999820e+01
-5.919194162000000148e+01
-5.918394483000000150e+01
-5.917641509999999982e+01
-5.939063063999999770e+01
-5.939010006000000175e+01
-5.938786627999999723e+01
-5.938397412999999858e+01
-5.937849102999999928e+01
-5.937154172999999702e+01
-5.936327282999999966e+01
-5.935384300999999851e+01
-5.934344363000000300e+01
-5.933226315999999656e+01
-5.932050450999999924e+01
-5.930837557000000260e+01
-5.929606412999999776e+01
-5.928376784999999671e+01
-5.927166445999999667e+01
-5.925992389000000315e+01
-5.924870737999999903e+01
-5.923815631000000081e+01
-5.922839413999999891e+01
-5.921953947000000085e+01
-5.944321297999999842e+01
-5.944250140999999843e+01
-5.944012183000000249e+01
-5.943612365999999980e+01
-5.943061276000000248e+01
-5.942371735999999771e+01
-5.941558957000000163e+01
-5.940640228000000178e+01
-5.939633915999999658e+01
-5.938559456000000125e+01
-5.937437483000000071e+01
-5.936286723999999992e+01
-5.935126850000000331e+01
-5.933975051000000178e+01
-5.932848562000000214e+01
-5.931761502999999891e+01
-5.930728174000000053e+01
-5.929759821999999758e+01
-5.928866768999999692e+01
-5.928054758999999763e+01
-5.941812696000000216e+01
-5.941784439999999989e+01
-5.941573154999999673e+01
-5.941184968000000310e+01
-5.940629992000000215e+01
-5.939922894000000042e+01
-5.939080277000000052e+01
-5.938123016000000121e+01
-5.937073242999999678e+01
-5.935954103000000259e+01
-5.934789073000000315e+01
-5.933600814999999784e+01
-5.932412877000000151e+01
-5.931246277000000333e+01
-5.930121194000000173e+01
-5.929056558999999993e+01
-5.928068967000000100e+01
-5.927172944000000143e+01
-5.926383349999999695e+01
-5.925709545000000134e+01
-5.943007819999999697e+01
-5.942906492000000185e+01
-5.942668936999999829e+01
-5.942301373000000098e+01
-5.941811196999999822e+01
-5.941209855999999689e+01
-5.940509724999999719e+01
-5.939724620999999871e+01
-5.938869327999999825e+01
-5.937958523999999727e+01
-5.937006988000000263e+01
-5.936030138999999650e+01
-5.935040133999999767e+01
-5.934050486999999663e+01
-5.933071419000000191e+01
-5.932113977000000204e+01
-5.931185708999999662e+01
-5.930294085999999965e+01
-5.929444403000000108e+01
-5.928637902999999909e+01
-5.938918295999999941e+01
-5.938873627000000255e+01
-5.938640886999999680e+01
-5.938226232000000238e+01
-5.937640598000000125e+01
-5.936899174999999929e+01
-5.936019745000000114e+01
-5.935023317000000276e+01
-5.933932388000000202e+01
-5.932769915000000083e+01
-5.931560517999999860e+01
-5.930326802999999813e+01
-5.929091237000000092e+01
-5.927874194000000330e+01
-5.926695057999999960e+01
-5.925572288000000043e+01
-5.924520724999999999e+01
-5.923554624999999874e+01
-5.922684102000000195e+01
-5.921918096999999648e+01
-5.939780090000000001e+01
-5.939782246000000043e+01
-5.939693924000000180e+01
-5.939518712000000278e+01
-5.939259904000000034e+01
-5.938923470000000293e+01
-5.938515120000000280e+01
-5.938042770999999931e+01
-5.937513279000000210e+01
-5.936935318999999822e+01
-5.936316443999999848e+01
-5.935665840000000060e+01
-5.934990677999999775e+01
-5.934298306000000167e+01
-5.933594441999999702e+01
-5.932885018999999716e+01
-5.932174307999999741e+01
-5.931467460999999730e+01
-5.930766247999999763e+01
-5.930073198000000190e+01
-5.937600908000000288e+01
-5.937549451000000289e+01
-5.937356086999999860e+01
-5.937021887000000220e+01
-5.936552456999999805e+01
-5.935954791000000341e+01
-5.935237637000000177e+01
-5.934412180000000347e+01
-5.933489794999999845e+01
-5.932483011000000062e+01
-5.931405094000000133e+01
-5.930270578999999742e+01
-5.929091500999999909e+01
-5.927882040000000075e+01
-5.926653928999999721e+01
-5.925420886999999937e+01
-5.924193221000000165e+01
-5.922983141000000273e+01
-5.921800309000000340e+01
-5.920654859999999786e+01
-5.946127400999999679e+01
-5.946130430000000189e+01
-5.945976762000000093e+01
-5.945670206999999863e+01
-5.945219481000000172e+01
-5.944634948000000207e+01
-5.943930004999999994e+01
-5.943121477999999769e+01
-5.942225092000000330e+01
-5.941260448999999966e+01
-5.940245450999999832e+01
-5.939197148000000226e+01
-5.938132427000000035e+01
-5.937068539999999928e+01
-5.936020785000000188e+01
-5.935002645000000143e+01
-5.934026647999999682e+01
-5.933103385999999801e+01
-5.932241244000000080e+01
-5.931448265000000220e+01
-5.943782618000000184e+01
-5.943641798000000165e+01
-5.943359059000000144e+01
-5.942940029999999751e+01
-5.942392784999999833e+01
-5.941727957999999887e+01
-5.940958004000000159e+01
-5.940096755999999800e+01
-5.939159431000000211e+01
-5.938159908000000087e+01
-5.937114259999999888e+01
-5.936037151000000023e+01
-5.934943530999999695e+01
-5.933847512999999907e+01
-5.932762890000000056e+01
-5.931700969999999984e+01
-5.930674836000000028e+01
-5.929693414999999845e+01
-5.928766472000000221e+01
-5.927901854000000270e+01
-5.916699048000000261e+01
-5.916650529000000347e+01
-5.916426815999999889e+01
-5.916034968999999677e+01
-5.915485472000000300e+01
-5.914792014999999736e+01
-5.913971098999999754e+01
-5.913042464000000109e+01
-5.912026320999999740e+01
-5.910943038999999999e+01
-5.909813144999999679e+01
-5.908657348999999925e+01
-5.907494842999999918e+01
-5.906342149000000319e+01
-5.905216045000000236e+01
-5.904128792000000203e+01
-5.903092708999999871e+01
-5.902115168000000267e+01
-5.901203101000000117e+01
-5.900359612999999825e+01
-5.940890595999999846e+01
-5.940804080000000198e+01
-5.940493504999999885e+01
-5.939966345999999930e+01
-5.939236671999999828e+01
-5.938322256000000010e+01
-5.937245579999999734e+01
-5.936031229000000309e+01
-5.934707897999999915e+01
-5.933302976000000228e+01
-5.931845249999999936e+01
-5.930362688000000304e+01
-5.928881922000000060e+01
-5.927430068999999691e+01
-5.926030083999999931e+01
-5.924706107000000088e+01
-5.923479698999999954e+01
-5.922370509000000283e+01
-5.921396306999999837e+01
-5.920573049000000054e+01
-5.942102318999999966e+01
-5.942006762999999836e+01
-5.941771247999999872e+01
-5.941400980000000231e+01
-5.940902633999999694e+01
-5.940285613000000353e+01
-5.939561136999999746e+01
-5.938740774000000044e+01
-5.937837847000000124e+01
-5.936865822000000037e+01
-5.935837243000000285e+01
-5.934767558000000065e+01
-5.933668232000000131e+01
-5.932551381999999762e+01
-5.931428019999999890e+01
-5.930308124999999819e+01
-5.929200641999999988e+01
-5.928112878999999680e+01
-5.927050856999999695e+01
-5.926019948999999798e+01
-5.940185627999999696e+01
-5.940121175000000164e+01
-5.939924280000000323e+01
-5.939597954999999985e+01
-5.939149545000000074e+01
-5.938586740000000219e+01
-5.937918933000000266e+01
-5.937156645000000310e+01
-5.936312496000000039e+01
-5.935397695000000340e+01
-5.934426029000000113e+01
-5.933408696000000049e+01
-5.932357812000000052e+01
-5.931283153999999769e+01
-5.930196904999999674e+01
-5.929107075000000293e+01
-5.928022177999999798e+01
-5.926949957000000069e+01
-5.925895555999999686e+01
-5.924863222999999834e+01
-5.946183452999999730e+01
-5.946151668000000257e+01
-5.945970665000000110e+01
-5.945642670000000152e+01
-5.945174669000000023e+01
-5.944576248999999990e+01
-5.943859109999999646e+01
-5.943035921999999971e+01
-5.942121500999999739e+01
-5.941131061000000102e+01
-5.940080422999999854e+01
-5.938985206000000261e+01
-5.937859851999999705e+01
-5.936719008000000031e+01
-5.935576796000000144e+01
-5.934444393999999789e+01
-5.933332395000000048e+01
-5.932251372999999717e+01
-5.931208957999999853e+01
-5.930212866000000105e+01
-5.931668702000000337e+01
-5.931638938999999766e+01
-5.931463551000000223e+01
-5.931146865000000190e+01
-5.930695792000000210e+01
-5.930119207999999986e+01
-5.929427601999999808e+01
-5.928634316000000126e+01
-5.927753960999999805e+01
-5.926801815999999690e+01
-5.925792942999999724e+01
-5.924742178999999709e+01
-5.923664735999999920e+01
-5.922574514000000079e+01
-5.921485460000000245e+01
-5.920410574000000281e+01
-5.919362380999999829e+01
-5.918351393999999743e+01
-5.917387920000000179e+01
-5.916480586000000130e+01
-5.932303701000000018e+01
-5.932237251000000100e+01
-5.932027519999999754e+01
-5.931678457999999665e+01
-5.931195414999999826e+01
-5.930588165999999717e+01
-5.929866065000000219e+01
-5.929041947999999707e+01
-5.928127824999999973e+01
-5.927136744999999962e+01
-5.926083052999999978e+01
-5.924979296000000062e+01
-5.923837988999999737e+01
-5.922670209000000341e+01
-5.921488074999999895e+01
-5.920303178999999716e+01
-5.919125267999999807e+01
-5.917961772000000309e+01
-5.916823827000000335e+01
-5.915717571999999791e+01
-5.941172154000000205e+01
-5.941081626999999798e+01
-5.940815678999999960e+01
-5.940379911000000135e+01
-5.939784468999999945e+01
-5.939043115999999856e+01
-5.938171411999999805e+01
-5.937187741999999702e+01
-5.936112393999999881e+01
-5.934965368999999669e+01
-5.933768242000000015e+01
-5.932540720000000078e+01
-5.931302511999999894e+01
-5.930072409999999650e+01
-5.928867471000000222e+01
-5.927704202000000322e+01
-5.926597524000000305e+01
-5.925558970000000159e+01
-5.924599967999999706e+01
-5.923728652999999866e+01
-5.940133739000000190e+01
-5.939979310999999740e+01
-5.939672251999999730e+01
-5.939218255000000113e+01
-5.938626373999999686e+01
-5.937906429000000230e+01
-5.937072468000000214e+01
-5.936138491999999900e+01
-5.935118271999999706e+01
-5.934029487000000103e+01
-5.932885697999999763e+01
-5.931703104999999709e+01
-5.930496191000000294e+01
-5.929277160000000180e+01
-5.928059544999999986e+01
-5.926856353000000155e+01
-5.925676072000000261e+01
-5.924528542000000186e+01
-5.923421359999999680e+01
-5.922360370999999901e+01
-5.905228429999999662e+01
-5.905174165999999758e+01
-5.904907515000000018e+01
-5.904435055999999804e+01
-5.903769597000000147e+01
-5.902927460000000082e+01
-5.901930580999999876e+01
-5.900804087000000209e+01
-5.899573912000000320e+01
-5.898268835999999737e+01
-5.896918122999999667e+01
-5.895548869000000280e+01
-5.894189427999999964e+01
-5.892863830000000291e+01
-5.891595980999999682e+01
-5.890405944999999832e+01
-5.889310946999999885e+01
-5.888326133999999712e+01
-5.887461145000000329e+01
-5.886722143000000074e+01
-5.925203149000000025e+01
-5.925127669999999824e+01
-5.924831075000000169e+01
-5.924322418999999940e+01
-5.923617034000000103e+01
-5.922734865999999698e+01
-5.921699471000000159e+01
-5.920538839000000308e+01
-5.919280365000000188e+01
-5.917952922999999998e+01
-5.916586089999999842e+01
-5.915207628000000284e+01
-5.913844436000000115e+01
-5.912521960000000121e+01
-5.911263868000000343e+01
-5.910090488000000164e+01
-5.909020596999999952e+01
-5.908069048000000123e+01
-5.907248912000000018e+01
-5.906567700000000087e+01
-5.940485857000000181e+01
-5.940363949000000332e+01
-5.940060221000000240e+01
-5.939581694000000311e+01
-5.938941068999999828e+01
-5.938153199999999998e+01
-5.937235434000000112e+01
-5.936208283999999935e+01
-5.935092299000000082e+01
-5.933909958000000273e+01
-5.932683292000000108e+01
-5.931433827000000036e+01
-5.930182906000000287e+01
-5.928951380000000171e+01
-5.927758640999999784e+01
-5.926622143000000165e+01
-5.925559524999999894e+01
-5.924584226999999714e+01
-5.923711374999999890e+01
-5.922951297000000181e+01
-5.943967420999999973e+01
-5.943966947999999917e+01
-5.943795036000000209e+01
-5.943457786999999826e+01
-5.942962868000000043e+01
-5.942322452999999882e+01
-5.941549449000000038e+01
-5.940661352000000051e+01
-5.939677707999999967e+01
-5.938616821000000101e+01
-5.937499687999999765e+01
-5.936345593000000065e+01
-5.935173750999999953e+01
-5.934001623000000336e+01
-5.932847034000000264e+01
-5.931724877999999990e+01
-5.930647958000000131e+01
-5.929628904999999861e+01
-5.928677305000000075e+01
-5.927800904000000060e+01
-5.942245117000000221e+01
-5.942191375000000164e+01
-5.941931286999999884e+01
-5.941469426999999826e+01
-5.940818829999999906e+01
-5.939992757000000267e+01
-5.939011923999999709e+01
-5.937898419999999788e+01
-5.936676906999999659e+01
-5.935370909000000239e+01
-5.934006787999999943e+01
-5.932609676999999948e+01
-5.931204263000000054e+01
-5.929812545000000057e+01
-5.928456867999999957e+01
-5.927156915999999853e+01
-5.925930438000000322e+01
-5.924793724999999966e+01
-5.923762277000000154e+01
-5.922847150999999855e+01
-5.938145441000000346e+01
-5.938095631000000196e+01
-5.937903965999999656e+01
-5.937575980999999814e+01
-5.937119333999999782e+01
-5.936544334999999961e+01
-5.935862303999999767e+01
-5.935085412000000105e+01
-5.934227242000000047e+01
-5.933301575000000128e+01
-5.932321243999999894e+01
-5.931298569999999870e+01
-5.930246778000000063e+01
-5.929176827999999944e+01
-5.928100101999999794e+01
-5.927025847000000169e+01
-5.925961645000000289e+01
-5.924916080999999934e+01
-5.923892780999999985e+01
-5.922896547999999939e+01
-5.933011473999999907e+01
-5.932903249999999673e+01
-5.932627687000000094e+01
-5.932192649000000273e+01
-5.931607937999999791e+01
-5.930886549000000230e+01
-5.930043289999999701e+01
-5.929095053000000348e+01
-5.928060153999999926e+01
-5.926956514999999825e+01
-5.925802372999999790e+01
-5.924616574000000213e+01
-5.923415526000000142e+01
-5.922215846000000283e+01
-5.921033180999999956e+01
-5.919880668999999784e+01
-5.918769979999999720e+01
-5.917712879999999842e+01
-5.916718200999999766e+01
-5.915791526999999661e+01
-5.932127220000000278e+01
-5.932045040999999941e+01
-5.931843325999999905e+01
-5.931522750999999971e+01
-5.931087320999999690e+01
-5.930542690000000050e+01
-5.929896413000000166e+01
-5.929155993999999907e+01
-5.928330265000000310e+01
-5.927429481000000067e+01
-5.926462203999999900e+01
-5.925437808000000217e+01
-5.924367129000000176e+01
-5.923258013000000233e+01
-5.922120680999999820e+01
-5.920962932999999850e+01
-5.919792934000000173e+01
-5.918619029999999981e+01
-5.917447186999999786e+01
-5.916283485999999670e+01
-5.932227886999999811e+01
-5.932173333000000071e+01
-5.931968273999999752e+01
-5.931619867999999940e+01
-5.931136458999999661e+01
-5.930530485999999968e+01
-5.929814860999999837e+01
-5.929006472999999744e+01
-5.928121193999999861e+01
-5.927177044999999822e+01
-5.926190951000000240e+01
-5.925180210999999986e+01
-5.924161587999999767e+01
-5.923150592999999731e+01
-5.922161607999999688e+01
-5.921206899999999962e+01
-5.920298663999999889e+01
-5.919444621000000240e+01
-5.918651856000000322e+01
-5.917926278000000195e+01
-5.947979580999999882e+01
-5.947860811999999697e+01
-5.947566685000000319e+01
-5.947104989000000330e+01
-5.946487220000000207e+01
-5.945727575000000087e+01
-5.944844738999999834e+01
-5.943857047000000193e+01
-5.942784641000000079e+01
-5.941647590000000179e+01
-5.940466484000000236e+01
-5.939260139000000294e+01
-5.938046741000000139e+01
-5.936842973000000256e+01
-5.935664614000000228e+01
-5.934524951000000215e+01
-5.933436351999999658e+01
-5.932408479000000057e+01
-5.931449735000000345e+01
-5.930565392999999830e+01
-5.927221952000000016e+01
-5.927269299999999674e+01
-5.927133755999999920e+01
-5.926821238000000136e+01
-5.926345217000000076e+01
-5.925720891999999651e+01
-5.924968250999999952e+01
-5.924110398999999916e+01
-5.923171006999999832e+01
-5.922176424999999966e+01
-5.921152066999999874e+01
-5.920123137000000213e+01
-5.919112913000000020e+01
-5.918144302000000323e+01
-5.917235690999999775e+01
-5.916404424000000262e+01
-5.915665089000000165e+01
-5.915029336999999998e+01
-5.914503787000000301e+01
-5.914093015000000264e+01
-5.921710025000000144e+01
-5.921665552000000332e+01
-5.921431540999999754e+01
-5.921015056000000243e+01
-5.920429805999999928e+01
-5.919693042000000105e+01
-5.918825120999999712e+01
-5.917847353999999882e+01
-5.916784118999999720e+01
-5.915658831999999734e+01
-5.914493527999999856e+01
-5.913312572000000245e+01
-5.912135537999999713e+01
-5.910983276000000330e+01
-5.909872049999999888e+01
-5.908816723000000337e+01
-5.907830332000000340e+01
-5.906921043999999910e+01
-5.906095759000000101e+01
-5.905357130000000154e+01
-5.931103412000000219e+01
-5.931020794999999879e+01
-5.930788754999999668e+01
-5.930411042000000066e+01
-5.929896732000000270e+01
-5.929254553999999899e+01
-5.928497302000000246e+01
-5.927637646000000160e+01
-5.926690070000000077e+01
-5.925670846999999952e+01
-5.924594488999999697e+01
-5.923475658000000266e+01
-5.922329474000000005e+01
-5.921170092999999923e+01
-5.920009172000000319e+01
-5.918859013000000147e+01
-5.917731209000000092e+01
-5.916634348000000188e+01
-5.915577088999999944e+01
-5.914567012999999918e+01
-5.934959341999999793e+01
-5.934774635000000131e+01
-5.934396884000000227e+01
-5.933836772000000082e+01
-5.933110561000000160e+01
-5.932236607000000106e+01
-5.931236190999999991e+01
-5.930133805999999907e+01
-5.928953597000000286e+01
-5.927721334999999669e+01
-5.926461445000000339e+01
-5.925195928000000123e+01
-5.923947399000000047e+01
-5.922736631000000074e+01
-5.921581566999999779e+01
-5.920495784999999955e+01
-5.919493775000000113e+01
-5.918585422000000307e+01
-5.917775310999999760e+01
-5.917064849999999865e+01
-5.920268369000000064e+01
-5.920203594000000180e+01
-5.919918485000000175e+01
-5.919422477999999899e+01
-5.918731566999999671e+01
-5.917866982000000320e+01
-5.916854115000000292e+01
-5.915720303999999885e+01
-5.914495001000000229e+01
-5.913208167999999887e+01
-5.911889774000000131e+01
-5.910569444000000061e+01
-5.909273681999999894e+01
-5.908028208000000348e+01
-5.906855639999999852e+01
-5.905774473000000313e+01
-5.904801459000000108e+01
-5.903947755000000086e+01
-5.903221401999999784e+01
-5.902624194999999929e+01
-5.944350423000000205e+01
-5.944232850000000212e+01
-5.943970663000000343e+01
-5.943568562000000099e+01
-5.943037310999999789e+01
-5.942388438999999778e+01
-5.941634765999999956e+01
-5.940790925000000300e+01
-5.939873723000000183e+01
-5.938898517999999882e+01
-5.937881485999999853e+01
-5.936838468999999918e+01
-5.935785471999999885e+01
-5.934736201999999849e+01
-5.933704361000000205e+01
-5.932701203999999962e+01
-5.931737434000000064e+01
-5.930822626999999869e+01
-5.929964469000000094e+01
-5.929168506999999977e+01
-5.946428291000000144e+01
-5.946321678999999705e+01
-5.946085322999999789e+01
-5.945723773000000278e+01
-5.945244189999999662e+01
-5.944655325000000090e+01
-5.943967769000000345e+01
-5.943193761999999936e+01
-5.942347924999999975e+01
-5.941441280000000091e+01
-5.940489413000000241e+01
-5.939503847000000292e+01
-5.938496150999999657e+01
-5.937478835999999660e+01
-5.936462096000000344e+01
-5.935453994000000222e+01
-5.934462897000000225e+01
-5.933493956000000225e+01
-5.932552108000000146e+01
-5.931639662999999985e+01
-5.936823222000000300e+01
-5.936745497999999799e+01
-5.936477253000000331e+01
-5.936023982999999760e+01
-5.935397565000000242e+01
-5.934613098999999892e+01
-5.933689530000000190e+01
-5.932648924000000079e+01
-5.931514570000000219e+01
-5.930310513999999955e+01
-5.929062469000000135e+01
-5.927794713000000115e+01
-5.926531451999999689e+01
-5.925296533000000210e+01
-5.924110668000000146e+01
-5.922993927000000269e+01
-5.921964085999999838e+01
-5.921036489000000103e+01
-5.920223795999999794e+01
-5.919535587000000021e+01
