1.900000877757771560e-05 2.999944990715874770e-06 -1.999999126161925933e-06 1.900000860159676135e-05 2.999944648859364510e-06 3.000000873838059229e-06 4.000020211347117038e-06 6.999988185169416459e-06 3.000000619383790515e-06 -1.000034758664904601e-06 -1.199999696078502788e-05 -2.000000855652837244e-06 -2.200001752002664118e-05 -5.999936351809151281e-06 2.999998815459733180e-06 2.700000881274020604e-05 2.999921839712825221e-06 -2.999998844593984090e-06 -1.100003192659336745e-05 -1.099996807331390559e-05 -1.139241362961722160e-12 2.000023395346861440e-06 7.999994536979206656e-06 -4.999999382636766409e-06 -5.000034934629008649e-06 -1.199998569295436353e-05 2.999999003563178184e-06 -1.899999426546875993e-05 2.000055009263052730e-06 1.999999468018946954e-06 2.500000867196386774e-05 2.999927371071204702e-06 1.000001085014019215e-06 1.000004647390272991e-05 1.599997104408593034e-05 -9.999985540976050922e-07 -1.000003776663735583e-05 -1.299997104409857308e-05 9.999987592118179585e-07 -1.699999996473219407e-05 4.940954179988457048e-11 -1.000000598331867515e-06 -2.600002895371600329e-05 -9.999924400248608576e-06 -2.000001598809838449e-06 9.000043606681342516e-06 1.499997401488324057e-05 -1.999998657664998805e-06
4.410696045545541705e-02 -1.370412756943339624e-02 -6.546999384572068162e-03 7.865030085507445159e-03 1.030697750318951104e-02 -4.837999018479441880e-03 7.994995626001708336e-03 -1.704022094163258703e-03 -1.624499983511286383e-02 -4.278025126110920721e-03 -8.583987994725140319e-03 6.015999262531391764e-03 -1.336201590624651499e-02 -5.387961738533118480e-03 7.615999161326001202e-03 -1.032502432292237496e-02 -8.377970045039985839e-03 1.839990637857532750e-04 4.449015474440410310e-03 5.599985573634693597e-03 2.213600053946676582e-02 -1.266392603088997357e-02 2.564403586131791882e-02 1.308800130759420373e-02 2.827090728161444841e-02 -3.193308212267163132e-02 1.000998811721845677e-03 2.914001138322509440e-02 3.840915880201404252e-03 -6.680998711774198233e-03 -1.208802779415715616e-02 -9.602964764452676799e-03 -2.209001082019744228e-03 -2.311601308662593335e-02 -4.492932997233651388e-03 1.310998879216716860e-03 -9.296944863996571898e-03 1.918202593806388190e-02 1.529400098428308936e-02 -1.954592095569316137e-02 2.759305470587235243e-02 2.961400119863120267e-02 -1.170403472184407268e-02 -1.210796521289886178e-02 -1.195100123977482082e-02 -5.548987326936889904e-03 3.787019372098274477e-03 -4.777699993637991166e-02
8.698792249486146655e-02 -2.686025159328541551e-02 -1.290699877482689474e-02 1.537006046862586690e-02 2.071895603737105435e-02 -9.472998042450444037e-03 1.610599129114731118e-02 -3.399044499710102227e-03 -3.285999966552765467e-02 -8.626049083040840046e-03 -1.676297579852092587e-02 1.221099855028948307e-02 -2.708003158941359526e-02 -1.069592246151258169e-02 1.549099831559194035e-02 -1.973104855618272244e-02 -1.673094272417725500e-02 -1.180018383740898613e-04 9.523029164224414145e-03 1.058396933954852161e-02 4.418000105881424167e-02 -2.461685216309488639e-02 5.124606969901133319e-02 2.559100263734116060e-02 5.573681735843792617e-02 -6.290116191983718963e-02 2.161997661089322311e-03 5.720302373429610870e-02 8.016834877626513589e-03 -1.323499743855006093e-02 -2.387505599106462192e-02 -1.934593039555984953e-02 -4.520002163017490526e-03 -4.615102652052214399e-02 -9.105866227580193192e-03 2.592997753079740592e-03 -1.855089295698462634e-02 3.724005181607598775e-02 2.964100189323014972e-02 -3.852084248809445333e-02 5.497610781818480091e-02 5.829600240300132630e-02 -2.277907051869057856e-02 -2.457593230994535236e-02 -2.304600248202507209e-02 -1.112697436980850801e-02 7.688038737432469592e-03 -9.422399986598617438e-02
1.295088850619252885e-01 -3.983137459031639571e-02 -1.900299816510356635e-02 2.288109087006008971e-02 3.113393457280341087e-02 -1.438099706600515573e-02 2.427998663043075961e-02 -5.207067084006763470e-03 -4.953499950145106440e-02 -1.270207311286049301e-02 -2.497196436422167987e-02 1.800299784556974592e-02 -4.062504679130480439e-02 -1.583988367635601191e-02 2.321599748715969663e-02 -2.935307234876933027e-02 -2.492991478863052987e-02 -2.410027376070716476e-04 1.433804156443040968e-02 1.512895382724481659e-02 6.666200153903091563e-02 -3.650577897876070010e-02 7.661410334260944366e-02 3.821600395334175115e-02 8.312772811759354397e-02 -9.363324150444995997e-02 3.397996523952750460e-03 8.516303602694579034e-02 1.217575415636134271e-02 -1.953099617011342520e-02 -3.570208400918323255e-02 -2.902689591282666542e-02 -6.798003241184051408e-03 -6.890803944757044330e-02 -1.354280027252669459e-02 3.987996648760617005e-03 -2.760584221188494905e-02 5.489207714850563580e-02 4.352000278142242884e-02 -5.769676496308057817e-02 8.203616150397154139e-02 8.712300357821309293e-02 -3.404210539198669616e-02 -3.672489886585039026e-02 -3.407500370908169568e-02 -1.687495945195581840e-02 1.226005862181477925e-02 -1.410459997556985368e-01
1.720818475847485929e-01 -5.281749773964067307e-02 -2.507899755457562371e-02 3.036012081813717692e-02 4.139191320562643495e-02 -1.935499610142044774e-02 3.241198182527331439e-02 -7.060089573271441897e-03 -6.581699934192941637e-02 -1.648509717023611057e-02 -3.319795373801010668e-02 2.317599715000011676e-02 -5.375306155973004485e-02 -2.083784608263946486e-02 3.066499668338640988e-02 -3.933409541219921174e-02 -3.287488582677248333e-02 -1.350036321090787247e-04 1.867805298688550789e-02 1.934193966610759860e-02 8.954600197983017540e-02 -4.835270704231094813e-02 1.015531368589746714e-01 5.091900524148924162e-02 1.105406385122921359e-01 -1.244903211561289302e-01 4.680995379044065527e-03 1.129360480379343334e-01 1.624067396068824484e-02 -2.557599491468535297e-02 -4.746511138178920869e-02 -3.848286163048088987e-02 -8.862004301714502055e-03 -9.116205183223631547e-02 -1.779373577246940938e-02 5.310995574862158522e-03 -3.636379219593919437e-02 7.228810164585537656e-02 5.700500366256483487e-02 -7.715268877777899104e-02 1.086412159653127041e-01 1.164930047124609763e-01 -4.551813876958185623e-02 -4.836086479041446645e-02 -4.529600490856052625e-02 -2.275994259760890509e-02 1.748707897260763991e-02 -1.888739996054494552e-01
2.128958119225168033e-01 -6.517161582128025432e-02 -3.060399696274669970e-02 3.751814958227390334e-02 5.124189277060718639e-02 -2.433599517602918691e-02 4.023097706250076955e-02 -8.891111195784685492e-03 -8.148899919191994468e-02 -1.995912059464745661e-02 -4.121294396871891946e-02 2.776499647973242405e-02 -6.619407542212112083e-02 -2.552881045376181185e-02 3.768799592478278698e-02 -4.903011725093527756e-02 -4.039485770926762309e-02 2.219955124776181268e-04 2.264806280401006344e-02 2.299692660649080289e-02 1.120260023694556878e-01 -5.968863838920126369e-02 1.253571689134022615e-01 6.331200647002033222e-02 1.368265527832935036e-01 -1.540113975393822832e-01 6.001994285813692237e-03 1.394330596005423917e-01 2.015559744320861296e-02 -3.125099371442307400e-02 -5.871713767436333165e-02 -4.756582883626531144e-02 -1.085300531875726601e-02 -1.123000632446847918e-01 -2.170867451732782019e-02 6.718994563215220824e-03 -4.455074520611806282e-02 8.863112454445255806e-02 6.963400449180906504e-02 -9.589561619118666669e-02 1.339942684254669392e-01 1.448650057862026219e-01 -5.675817027513987284e-02 -5.934683142819015961e-02 -5.610400605529169971e-02 -2.848092535666752953e-02 2.286709873575235377e-02 -2.350689994389674464e-01
2.530247767332204356e-01 -7.735973193199119358e-02 -3.587699638367738281e-02 4.449917775757169375e-02 6.088887285000114946e-02 -2.932699427074701368e-02 4.795797234486005867e-02 -1.070213257636747593e-02 -9.679399904378108155e-02 -2.322414363271323515e-02 -4.910093477157528863e-02 3.184999582550385872e-02 -7.824208874520512114e-02 -3.003677594967454900e-02 4.447899519252315748e-02 -5.859113824188570685e-02 -4.762082999432524361e-02 7.359946819169662681e-04 2.640507124193835695e-02 2.617791415839145278e-02 1.346040027191763855e-01 -7.070857137411214188e-02 1.485952000598970701e-01 7.557000767097515892e-02 1.626884683367258999e-01 -1.830894726985059506e-01 7.417993207948750563e-03 1.652840709041123457e-01 2.398452278237030860e-02 -3.665799254277735814e-02 -6.970816331532035670e-02 -5.642279680799245495e-02 -1.272100631116193994e-02 -1.328110741828797403e-01 -2.546061507974912985e-02 8.093993584780708947e-03 -5.237970019074466438e-02 1.042861464475381555e-01 8.162600528661394239e-02 -1.143155456539279580e-01 1.586363199759006914e-01 1.728310068227005003e-01 -6.787020055828864307e-02 -6.990979844780170760e-02 -6.676100716859667550e-02 -3.418490733702625461e-02 2.852411840046412822e-02 -2.805459992529482638e-01
2.917477430326536614e-01 -8.902884399615328126e-02 -4.064899581860886846e-02 5.125620462553243800e-02 7.008485358275294563e-02 -3.436499340418424503e-02 5.533196771783312901e-02 -1.247115299317763833e-02 -1.112099989051947985e-01 -2.611116638647141205e-02 -5.690092661541462649e-02 3.511399519059606178e-02 -8.940410112784655250e-02 -3.422774397754735354e-02 5.069099451312091692e-02 -6.813615803303364749e-02 -5.442880235187284865e-02 1.630993880498696159e-03 2.957507835531395998e-02 2.889890343452703250e-02 1.568820030167862034e-01 -8.138750787031880096e-02 1.706212302291831018e-01 8.764500880106566860e-02 1.876963866751845678e-01 -2.112075453814951653e-01 8.870992165662979281e-03 1.901480814044308187e-01 2.754145095942191548e-02 -4.167299142446709986e-02 -8.024818773870770472e-02 -6.485776610279808674e-02 -1.438300725884049044e-02 -1.521320839318258122e-01 -2.880255909748989998e-02 9.489992676261702065e-03 -5.952165775039162943e-02 1.190451664063013060e-01 9.289200604433768549e-02 -1.322384786511749122e-01 1.820503701414729891e-01 1.999540077927307036e-01 -7.893322834748552064e-02 -7.961176561941264718e-02 -7.727500822130926872e-02 -3.980988829320513539e-02 3.455213773366792862e-02 -3.245279990387827107e-01
3.290657107940799797e-01 -1.001889520122247884e-01 -4.498499526818967864e-02 5.776123016432584134e-02 7.882283504719046763e-02 -3.940699257780496539e-02 6.236196327727026867e-02 -1.416517247220036579e-02 -1.247389987735880862e-01 -2.868018879428582343e-02 -6.459091933039910749e-02 3.761999457440145384e-02 -9.972511271367175134e-02 -3.815071440950587589e-02 5.636399388164204521e-02 -7.760817653473735256e-02 -6.078877494235748746e-02 2.833993112280121761e-03 3.227308423472865367e-02 3.118989410795602879e-02 1.787600032683838158e-01 -9.163344772057915866e-02 1.914882591608693674e-01 9.944000986715359480e-02 2.118103077250720612e-01 -2.383916154686292754e-01 1.030799115577088129e-02 2.140260911699781166e-01 3.084938197481109506e-02 -4.634499035788457177e-02 -9.032621088028496004e-02 -7.284873675185686570e-02 -1.585000815990158726e-02 -1.703340926790891940e-01 -3.179950636235840539e-02 1.087599183071514576e-02 -6.604261774234730653e-02 1.329571846132588664e-01 1.034180067660075558e-01 -1.496354150006897477e-01 2.042984188424575298e-01 2.261690087015529593e-01 -8.979825406689070921e-02 -8.859773338191009873e-02 -8.755200921809913606e-02 -4.537386836879540863e-02 4.090215678494105861e-02 -3.669759988004547280e-01
3.647026804251932708e-01 -1.106990551821462332e-01 -4.884099473249355061e-02 6.397325411266373274e-02 8.701281736217660046e-02 -4.445099179920564830e-02 6.894995912044384057e-02 -1.574819074301459301e-02 -1.371759986499487827e-01 -3.090621082595201158e-02 -7.216191298115826047e-02 3.925199397841527132e-02 -1.090271233682361118e-01 -4.176068775472892985e-02 6.138899330742814131e-02 -8.703719366036528904e-02 -6.666974768520191053e-02 4.439992378324876879e-03 3.444608879423881331e-02 3.301888634597608535e-02 2.000410034699159345e-01 -1.014253916572351172e-01 2.109432867978348058e-01 1.108990108526800716e-01 2.347942319299672342e-01 -2.644886822758946154e-01 1.174299018042702925e-02 2.367760999498443042e-01 3.382231623815238480e-02 -5.063698935390754940e-02 -9.983023257290882246e-02 -8.033770908256492038e-02 -1.708800900643774046e-02 -1.871851001840161288e-01 -3.436845754819543852e-02 1.225899106198133706e-02 -7.181658020066696013e-02 1.460102007042098915e-01 1.131820074552378208e-01 -1.664233552176231368e-01 2.252004658521068459e-01 2.512690095397816514e-01 -1.005332771992393237e-01 -9.668970153669947942e-02 -9.761001014918949115e-02 -5.088984741674014434e-02 4.762417559577521858e-02 -4.079449985350031005e-01
3.986736518911997429e-01 -1.205711535493854958e-01 -5.221799421181298750e-02 6.989627634860917649e-02 9.461280051603350449e-02 -4.949599107111709445e-02 7.505295531009736898e-02 -1.719720768861059818e-02 -1.484069985342177933e-01 -3.278423256412679732e-02 -7.964290757926408004e-02 3.996699340083072205e-02 -1.172221331389453475e-01 -4.507466426486912703e-02 6.571099279241414404e-02 -9.640720934425284216e-02 -7.204872062896450213e-02 6.479991680768637692e-03 3.602709222188749116e-02 3.444988034749331407e-02 2.206600036234002138e-01 -1.108443397831733040e-01 2.289513133726460703e-01 1.220590117524012336e-01 2.566241594651768598e-01 -2.894387457313770118e-01 1.314298924288900307e-02 2.583621075810715872e-01 3.640425385311273077e-02 -5.453698841763188199e-02 -1.087412526781430522e-01 -8.727668315177769531e-02 -1.807200979449840456e-02 -2.026201063941873159e-01 -3.649141284331663265e-02 1.363399037357869957e-02 -7.680754504286989304e-02 1.582332145713853111e-01 1.222320081152782484e-01 -1.825852995592347761e-01 2.446675111231312594e-01 2.752240103019301110e-01 -1.111792975281329782e-01 -1.038136699616367259e-01 -1.074950110109638701e-01 -5.625882574309379325e-02 5.461119388758262777e-02 -4.475629982462592249e-01
4.307356253907837496e-01 -1.297362464117310932e-01 -5.507099370998299465e-02 7.550929665915921685e-02 1.015497845675244482e-01 -5.450999039926954920e-02 8.058895194700391174e-02 -1.847522308384376075e-02 -1.582439984267513811e-01 -3.430825404722674665e-02 -8.704790313782366507e-02 3.970199284090177722e-02 -1.241681419934674013e-01 -4.808264434564350764e-02 6.923599234228158816e-02 -1.057602234819667725e-01 -7.688869365748683682e-02 9.037991020662916250e-03 3.689909479560623401e-02 3.557687646200452525e-02 2.404720037311456338e-01 -1.198932925208802402e-01 2.453663388964723580e-01 1.328840125562292807e-01 2.771440908077899556e-01 -3.130778053801799854e-01 1.447698834887913878e-02 2.787671139444495849e-01 3.855419486862326356e-02 -5.803898755245912727e-02 -1.169972710261880516e-01 -9.360665914224884643e-02 -1.876101051786750046e-02 -2.164871111670680082e-01 -3.811937268827499115e-02 1.499198977420722161e-02 -8.095151237850931047e-02 1.695882260304659439e-01 1.305470087457833439e-01 -1.980342485236316619e-01 2.625265544108151827e-01 2.979200109792320417e-01 -1.217293148654774171e-01 -1.099046386781329793e-01 -1.171910117987317868e-01 -6.152680327156731521e-02 6.189021178984067256e-02 -4.857709979339961404e-01
4.607396010709485790e-01 -1.381433333387051821e-01 -5.737099322876081792e-02 8.079431490510323444e-02 1.077757695690983314e-01 -5.949598978757834888e-02 8.550394913125139440e-02 -1.954623678052987493e-02 -1.665619983269888138e-01 -3.548327527080080007e-02 -9.437589963931655723e-02 3.841299229852083996e-02 -1.297661499439214661e-01 -5.078962827974256578e-02 7.189599196017301685e-02 -1.151492359189230236e-01 -8.113566662111150463e-02 1.217499039983438100e-02 3.701809663889966961e-02 3.644087482596762573e-02 2.593490037944067850e-01 -1.285562501913281308e-01 2.600773633252000394e-01 1.433400132571380770e-01 2.962760262398697053e-01 -3.353088609948892684e-01 1.572998750228417342e-02 2.979441190021764885e-01 4.025913942096111253e-02 -6.114098676093232543e-02 -1.245612874724508073e-01 -9.927763716239379477e-02 -1.914001117182422343e-02 -2.286761144214963792e-01 -3.922433740254211570e-02 1.633598926965286469e-02 -8.419548210199083449e-02 1.801122349241364995e-01 1.381780093511481566e-01 -2.126862023345985064e-01 2.786995954764150407e-01 3.192830115693109927e-01 -1.322293290156486834e-01 -1.148956075504208862e-01 -1.267310125095313655e-01 -6.657878042494816406e-02 6.931622896501103692e-02 -5.225139976040802381e-01
4.885705790171132046e-01 -1.457624139997428236e-01 -5.907099277014288274e-02 8.574133095257790993e-02 1.132447555490958824e-01 -6.444398923954054725e-02 8.974294694208277690e-02 -2.038124862860784051e-02 -1.732209982348831279e-01 -3.630329627634391876e-02 -1.016418970971917080e-01 3.604199177287351064e-02 -1.339091569759530143e-01 -5.319161637239247509e-02 7.361299165012789858e-02 -1.246172465373891758e-01 -8.474863939749585628e-02 1.592698981957283225e-02 3.632509789711915738e-02 3.709087561671033095e-02 2.772020038144573650e-01 -1.368532131043721511e-01 2.729773867182453961e-01 1.534070138471080036e-01 3.138729660212104533e-01 -3.560429121459777746e-01 1.685998670401534991e-02 3.157991225739155694e-01 4.145708778220211221e-02 -6.383198605059893505e-02 -1.313953018960504482e-01 -1.042476173244874377e-01 -1.918001175215951204e-02 -2.390791160469346310e-01 -3.976830729910112855e-02 1.765898886631490916e-02 -8.646945421160903700e-02 1.898062410469027461e-01 1.451590099339048756e-01 -2.264571613592650245e-01 2.930596340789994869e-01 3.392710120664402806e-01 -1.427113396809102097e-01 -1.186845764823415417e-01 -1.361630131375149710e-01 -7.146675748730517419e-02 7.679224555909731909e-02 -5.577199972649734550e-01
5.141685592031913776e-01 -1.526024882206302447e-01 -6.017199233685627258e-02 9.034034464184453883e-02 1.179017425363364097e-01 -6.935098875926853923e-02 9.323894547562770752e-02 -2.094525844421309471e-02 -1.780659981503993905e-01 -3.675231715692598572e-02 -1.088788955526231311e-01 3.251199126226666375e-02 -1.364831630923756811e-01 -5.529060894865775455e-02 7.430199141602183976e-02 -1.342072552756587434e-01 -8.770561186600651926e-02 2.035498927986901033e-02 3.474009880647115078e-02 3.760687907422038956e-02 2.939170037939513036e-01 -1.448311815970800831e-01 2.839504092112706268e-01 1.630960143165537668e-01 3.298879102956852605e-01 -3.752309586938183950e-01 1.781998595576866212e-02 3.323321244761805460e-01 4.208503995111582269e-02 -6.609398542576634672e-02 -1.374643141294914217e-01 -1.084585997317557698e-01 -1.885701225367597197e-02 -2.475781159358174943e-01 -3.971428272009611127e-02 1.895598857087622130e-02 -8.773242869026626201e-02 1.986762442791500383e-01 1.514990104959066386e-01 -2.392821260107068360e-01 3.054636700337404753e-01 3.578280124631305070e-01 -1.531683467688069178e-01 -1.212395454950325191e-01 -1.454750136802483718e-01 -7.613673448311115977e-02 8.431326139601968972e-02 -5.911059969151173377e-01
5.374415418612010775e-01 -1.585835557346869096e-01 -6.066899192666930923e-02 9.457335580690197363e-02 1.216897305819698016e-01 -7.420098835129300407e-02 9.592894480476123198e-02 -2.121126605515910937e-02 -1.809409980739089541e-01 -3.682233796890603539e-02 -1.161068950255482873e-01 2.777499076561445318e-02 -1.373871682819837181e-01 -5.708360629682866089e-02 7.389199126161473397e-02 -1.439362620721309494e-01 -8.998458398167814842e-02 2.552298878162875123e-02 3.215109969320768812e-02 3.809988553149963597e-02 3.093780037365359004e-01 -1.524831560253940843e-01 2.928734307860105246e-01 1.723770146573120610e-01 3.442318594034411983e-01 -3.927560003790021570e-01 1.859398526241111405e-02 3.474991245693035413e-01 4.209499605472532408e-02 -6.791698489126500593e-02 -1.427293240025164778e-01 -1.118515844993078212e-01 -1.814301267096704931e-02 -2.540511139861736933e-01 -3.902726401887057078e-02 2.021598839002371542e-02 -8.793040550642329534e-02 2.067332444633954713e-01 1.572090110398062235e-01 -2.510760967458878223e-01 3.157537030970778980e-01 3.749080127515707073e-01 -1.636353501731268034e-01 -1.225245144835589856e-01 -1.547160141365020447e-01 -8.053071150807850076e-02 9.184827629629330192e-02 -6.225089965545897996e-01
5.583305271369137790e-01 -1.636546163750459137e-01 -6.049799153817161934e-02 9.842336431766926519e-02 1.245637197363630017e-01 -7.900898801928900317e-02 9.775794506387235072e-02 -2.113127131138486242e-02 -1.817059980040657829e-01 -3.650935882269806115e-02 -1.233648955221753607e-01 2.175199028039116397e-02 -1.365051725593060261e-01 -5.857660874797965267e-02 7.230099119057910306e-02 -1.538102668339470791e-01 -9.155255573277122638e-02 3.151398832689714102e-02 2.853710068554704549e-02 3.861289505613076101e-02 3.234880036444121032e-01 -1.598181367464878433e-01 2.996234514682455385e-01 1.812550148606563993e-01 3.568318134888954218e-01 -4.085680369910199006e-01 1.920198462479197343e-02 3.612501226929475395e-01 4.143195623678447986e-02 -6.928098445261514360e-02 -1.471453313937167995e-01 -1.143845717587100019e-01 -1.702401299957732525e-02 -2.583691100734810675e-01 -3.766425157038408300e-02 2.144698833123763818e-02 -8.698538473869223131e-02 2.139502413727716323e-01 1.622960115665028624e-01 -2.617580737860424334e-01 3.238527330382916514e-01 3.904470129293470815e-01 -1.741713496861435062e-01 -1.224684832734648926e-01 -1.639330145034982034e-01 -8.469168848634046898e-02 9.942429037986778850e-02 -6.518579961830586189e-01
5.767605149928090036e-01 -1.678286699236152812e-01 -5.966499117489171972e-02 1.018863700058763727e-01 1.264657100112626664e-01 -8.377698776736286490e-02 9.865894632757710170e-02 -2.067727403135038999e-02 -1.801719979413135830e-01 -3.580437978570765595e-02 -1.306768970642502858e-01 1.437898980527265239e-02 -1.337111759154058499e-01 -5.976761666173083243e-02 6.943999120748636789e-02 -1.639272693789418089e-01 -9.234552684182252558e-02 3.842998791660074548e-02 2.381110199360907467e-02 3.921690790848686436e-02 3.361320035193721134e-01 -1.668891241836220896e-01 3.040544714127618176e-01 1.897160149147392172e-01 3.676477727077772650e-01 -4.226140684100828659e-01 1.958998404512708041e-02 3.735701186404776775e-01 4.002492053973599750e-02 -7.016998411519909107e-02 -1.506803360955260573e-01 -1.159855616055749244e-01 -1.546001323345777903e-02 -2.603981040579665396e-01 -3.557724576267254357e-02 2.263598840251608568e-02 -8.483136637043313388e-02 2.203332348142145181e-01 1.667820120787296967e-01 -2.712560576794468825e-01 3.295717596489552981e-01 4.044370129860715424e-01 -1.847603450600249775e-01 -1.209864519090015078e-01 -1.731580147748621179e-01 -8.861666556550078233e-02 1.069923036275753220e-01 -6.789999958037680194e-01
5.925635055546072394e-01 -1.710627158910106860e-01 -5.819599083980257770e-02 1.049633726390127447e-01 1.273157014031514322e-01 -8.849598760094909422e-02 9.855894862656798538e-02 -1.983627401685321423e-02 -1.761389978873328099e-01 -3.468440089702019141e-02 -1.380568997155204036e-01 5.611989340111226895e-03 -1.288671783609946775e-01 -6.066163043123228016e-02 6.520099131685172522e-02 -1.743132694938492044e-01 -9.228949723630934521e-02 4.631398755488394525e-02 1.785610391914309314e-02 4.001392443922702907e-02 3.471480033642719842e-01 -1.737191188296804134e-01 3.059964906873413049e-01 1.977450148071278335e-01 3.765757374131806778e-01 -4.347730943306477025e-01 1.970398352802899683e-02 3.844241121897963298e-01 3.779788906222498329e-02 -7.054098388544491338e-02 -1.533093378628222758e-01 -1.165695541155402082e-01 -1.340601336591694913e-02 -2.599920958111849312e-01 -3.272224701805390851e-02 2.376198861200601309e-02 -8.142235027898898914e-02 2.259252246500418893e-01 1.707280125810456961e-01 -2.795340490055651106e-01 3.327107828265650769e-01 4.168490129093369578e-01 -1.954153360495598235e-01 -1.179944203497028249e-01 -1.824310149453081675e-01 -9.226864289247826978e-02 1.145043159172582647e-01 -7.037189954186976459e-01
6.055954990730596510e-01 -1.732697538627023526e-01 -5.604099053202409725e-02 1.076193720837783641e-01 1.270676940140243738e-01 -9.317198752442462650e-02 9.738295212879617690e-02 -1.854827106224530772e-02 -1.694309978406609574e-01 -3.313342230638133268e-02 -1.455579035144931310e-01 -4.665011118153661492e-03 -1.218551798461850605e-01 -6.124265039226945567e-02 5.948599152392225475e-02 -1.848932671125122496e-01 -9.136146713507575789e-02 5.518298724595898513e-02 1.060810668926104663e-02 4.108094484114815231e-02 3.564330031821236755e-01 -1.803071210865156426e-01 3.053105092921589159e-01 2.052970145283538328e-01 3.834777079363345109e-01 -4.449311143514969591e-01 1.953398307643501239e-02 3.937421032210600691e-01 3.470986200578022457e-02 -7.036998376861954008e-02 -1.549833365196138513e-01 -1.160755494328759574e-01 -1.083201339105957506e-02 -2.569790851590972869e-01 -2.903925583595010074e-02 2.482798896986341750e-02 -7.665333661489907857e-02 2.306742105762517869e-01 1.741230130735911819e-01 -2.865140481829608343e-01 3.331248023491768517e-01 4.276180126919746360e-01 -2.061583224479016929e-01 -1.134213885302116781e-01 -1.917740150107562491e-01 -9.562262043476686679e-02 1.219723271718435448e-01 -7.259489950261472924e-01
2.297700000000000090e-02 2.177099999999999869e-02 -1.192999999999999963e-02 9.308000000000000301e-03 -1.403899999999999940e-02 8.654000000000000234e-03 4.672699999999999770e-02 3.146999999999999797e-02 -5.646000000000000324e-02 -5.653799999999999798e-02 -4.908499999999999669e-02 1.335000000000000075e-02 -3.535100000000000048e-02 -9.043000000000000690e-03 1.757799999999999987e-02 -1.933500000000000149e-02 4.366000000000000089e-03 4.322100000000000247e-02 -3.107100000000000140e-02 -2.364399999999999835e-02 -1.457999999999999921e-02 -4.145399999999999779e-02 -2.922800000000000051e-02 1.344200000000000082e-02 -9.306999999999999301e-03 5.949000000000000295e-03 -2.264999999999999999e-02 4.568699999999999845e-02 1.938600000000000045e-02 8.479000000000000425e-03 4.775200000000000278e-02 2.533999999999999794e-03 -9.292999999999999178e-03 -1.247400000000000071e-02 -2.419000000000000143e-03 2.749100000000000155e-02 2.909099999999999880e-02 3.553300000000000208e-02 -7.740000000000000352e-03 -6.520000000000000188e-04 -9.565999999999999850e-03 -6.910999999999999609e-03 -3.501000000000000206e-03 -5.202000000000000027e-03 -5.185000000000000372e-03 7.979999999999999247e-03 2.156399999999999983e-02 2.324999999999999810e-03
4.730600000000000083e-02 2.854699999999999946e-02 -2.073499999999999996e-02 2.370999999999999844e-03 -4.759900000000000242e-02 1.278699999999999976e-02 5.315099999999999686e-02 3.412300000000000055e-02 -6.736000000000000321e-02 -3.987799999999999678e-02 -6.574900000000000189e-02 -6.342999999999999680e-03 -3.609699999999999714e-02 3.262999999999999928e-02 2.355900000000000008e-02 -2.813399999999999929e-02 1.221200000000000063e-02 4.827599999999999947e-02 -2.749100000000000155e-02 -3.314099999999999685e-02 -4.662999999999999610e-03 -4.525300000000000156e-02 -3.651000000000000079e-02 3.489699999999999747e-02 -1.540500000000000029e-02 1.949199999999999891e-02 -2.887500000000000136e-02 4.015799999999999925e-02 3.214700000000000196e-02 2.378299999999999859e-02 4.271799999999999903e-02 4.634000000000000098e-03 -2.261799999999999922e-02 -4.747999999999999617e-03 -7.860000000000000667e-03 1.867200000000000110e-02 1.681099999999999955e-02 1.400999999999999988e-02 -9.308000000000000301e-03 -5.335999999999999598e-03 8.090999999999999234e-03 -1.342000000000000094e-03 -6.252999999999999878e-03 -2.111199999999999882e-02 4.695000000000000388e-03 5.886999999999999872e-03 2.639499999999999832e-02 -5.603999999999999607e-03
7.076799999999999757e-02 3.478599999999999748e-02 -2.910899999999999946e-02 -5.089999999999999906e-03 -8.061200000000000310e-02 1.656699999999999839e-02 5.923300000000000093e-02 3.637800000000000061e-02 -7.729300000000000059e-02 -2.289599999999999969e-02 -8.187600000000000433e-02 -2.544599999999999987e-02 -3.632500000000000312e-02 7.385999999999999510e-02 2.903999999999999984e-02 -3.660299999999999665e-02 1.990899999999999961e-02 5.249700000000000200e-02 -2.419299999999999923e-02 -4.212699999999999778e-02 4.872999999999999728e-03 -4.856900000000000106e-02 -4.294300000000000200e-02 5.560999999999999971e-02 -2.075199999999999961e-02 3.327600000000000002e-02 -3.449100000000000082e-02 3.444599999999999745e-02 4.426599999999999979e-02 3.862800000000000261e-02 3.719700000000000090e-02 6.369999999999999794e-03 -3.558399999999999758e-02 2.651999999999999844e-03 -1.301700000000000079e-02 9.535999999999999338e-03 4.529000000000000040e-03 -7.256000000000000297e-03 -1.051000000000000024e-02 -1.020300000000000026e-02 2.536100000000000160e-02 4.308000000000000197e-03 -8.694999999999999604e-03 -3.651700000000000085e-02 1.504800000000000061e-02 4.173999999999999759e-03 3.070200000000000012e-02 -1.382599999999999975e-02
9.426600000000000257e-02 4.123999999999999888e-02 -3.724800000000000333e-02 -1.228399999999999978e-02 -1.133239999999999942e-01 2.027699999999999989e-02 6.563499999999999890e-02 3.902900000000000119e-02 -8.753800000000000470e-02 -6.597999999999999698e-03 -9.824099999999999500e-02 -4.484099999999999892e-02 -3.693599999999999661e-02 1.148300000000000015e-01 3.424200000000000160e-02 -4.534400000000000236e-02 2.727299999999999863e-02 5.711299999999999710e-02 -2.097299999999999859e-02 -5.125199999999999895e-02 1.414600000000000059e-02 -5.221300000000000247e-02 -4.975199999999999761e-02 7.615900000000000447e-02 -2.616299999999999876e-02 4.671199999999999658e-02 -4.023399999999999893e-02 2.914399999999999977e-02 5.684299999999999770e-02 5.376100000000000323e-02 3.227100000000000107e-02 8.340000000000000191e-03 -4.869899999999999923e-02 9.860999999999999974e-03 -1.842099999999999987e-02 6.890000000000000508e-04 -7.146999999999999707e-03 -2.839099999999999957e-02 -1.149299999999999974e-02 -1.510399999999999937e-02 4.251100000000000018e-02 9.700000000000000289e-03 -1.118000000000000070e-02 -5.192700000000000093e-02 2.547999999999999918e-02 2.396000000000000126e-03 3.514400000000000163e-02 -2.159600000000000061e-02