5.314043243999999611e+00 0.000000000000000000e+00 0.000000000000000000e+00 2.693040717000000139e+00 4.740354566999999797e+00 0.000000000000000000e+00 8.436166200000000392e-02 -2.371603969999999950e-01 8.622428709999999441e+00
5.166891484999999840e+00 0.000000000000000000e+00 0.000000000000000000e+00 2.618467428999999846e+00 4.609088884000000164e+00 0.000000000000000000e+00 8.202559399999999334e-02 -2.305931619999999904e-01 8.383664082999999323e+00
5.198362651000000056e+00 0.000000000000000000e+00 0.000000000000000000e+00 2.651024587999999849e+00 4.482248335000000417e+00 0.000000000000000000e+00 -5.862927300000000258e-02 -1.756693709999999908e-01 8.468873057999999787e+00
5.409402617999999663e+00 0.000000000000000000e+00 0.000000000000000000e+00 2.700448349000000192e+00 4.588977350000000399e+00 0.000000000000000000e+00 -2.496761299999999961e-01 2.315149139999999883e-01 8.381593377999999817e+00
5.360483332000000267e+00 0.000000000000000000e+00 0.000000000000000000e+00 2.691220769000000068e+00 4.658391415999999730e+00 0.000000000000000000e+00 1.395460299999999945e-02 1.761067259999999912e-01 8.958884005999999900e+00
5.043300181000000215e+00 0.000000000000000000e+00 0.000000000000000000e+00 2.474230786000000126e+00 4.503994134000000038e+00 0.000000000000000000e+00 1.131820300000000029e-01 6.853564700000000509e-02 8.562667078000000487e+00
5.285667698000000136e+00 0.000000000000000000e+00 0.000000000000000000e+00 2.638678172000000099e+00 4.484008874999999783e+00 0.000000000000000000e+00 -2.439650270000000010e-01 2.262192309999999928e-01 8.189872431999999591e+00
