-5.368128628000000191e+01
-5.659184781999999814e+01
-5.561501245000000182e+01
-5.545148688999999820e+01
-5.444318215999999921e+01
-5.619618595000000028e+01
-5.621655925999999681e+01
