6.081027423000000098e+00 0.000000000000000000e+00 0.000000000000000000e+00 -4.935920099999999838e-02 5.910037218000000259e+00 0.000000000000000000e+00 -1.401796509999999885e-01 5.826455299999999671e-02 6.145177183000000376e+00
6.299977901000000102e+00 0.000000000000000000e+00 0.000000000000000000e+00 -9.544551099999999677e-02 6.227633223999999856e+00 0.000000000000000000e+00 -1.257439890000000005e-01 1.711360580000000076e-01 6.160997507000000262e+00
6.185742976000000226e+00 0.000000000000000000e+00 0.000000000000000000e+00 -1.303024499999999863e-01 6.319464345000000094e+00 0.000000000000000000e+00 -1.310383059999999933e-01 1.368004050000000138e-01 6.153398081999999825e+00
6.354050106999999947e+00 0.000000000000000000e+00 0.000000000000000000e+00 -3.296249600000000085e-02 6.278775378999999823e+00 0.000000000000000000e+00 -5.051622599999999741e-02 -3.876753299999999985e-02 6.130782792999999842e+00
5.995290316000000175e+00 0.000000000000000000e+00 0.000000000000000000e+00 -9.082945300000000444e-02 5.926444464000000245e+00 0.000000000000000000e+00 -1.196625969999999956e-01 1.628593580000000096e-01 5.863031470000000134e+00
