4.265539633000000386e+00 0.000000000000000000e+00 0.000000000000000000e+00 -1.055481699999999932e-02 2.594770897000000076e+00 0.000000000000000000e+00 -9.315695000000000225e-02 3.347170640000000086e-01 2.202256179800000169e+01
4.329826019999999609e+00 0.000000000000000000e+00 0.000000000000000000e+00 -3.556798199999999799e-02 2.586606317000000210e+00 0.000000000000000000e+00 2.251500889999999977e-01 -1.151835439999999988e-01 2.109346463199999988e+01
3.936613480000000109e+00 0.000000000000000000e+00 0.000000000000000000e+00 1.975375999999999868e-02 2.488920178999999955e+00 0.000000000000000000e+00 1.966725099999999948e-01 -2.640965500000000063e-02 2.032212829799999909e+01
4.345045772999999834e+00 0.000000000000000000e+00 0.000000000000000000e+00 6.211500500000000091e-02 2.607576343999999935e+00 0.000000000000000000e+00 3.936930000000000290e-02 2.815722999999999976e-01 1.931681692000000083e+01
4.117242323000000148e+00 0.000000000000000000e+00 0.000000000000000000e+00 -3.384475700000000309e-02 2.469473365999999892e+00 0.000000000000000000e+00 5.683270030000000528e-01 5.289401860000000344e-01 2.154484803900000145e+01
4.315054200999999701e+00 0.000000000000000000e+00 0.000000000000000000e+00 1.391383099999999977e-02 2.668449653999999782e+00 0.000000000000000000e+00 -4.660530600000000190e-01 2.036557689999999865e-01 2.044150120200000131e+01
4.062052636999999855e+00 0.000000000000000000e+00 0.000000000000000000e+00 -7.214033000000000251e-02 2.557656860999999893e+00 0.000000000000000000e+00 -6.196371790000000379e-01 -4.406261910000000004e-01 2.113451622599999880e+01
4.298540345000000151e+00 0.000000000000000000e+00 0.000000000000000000e+00 1.458818800000000020e-02 2.637431884000000171e+00 0.000000000000000000e+00 -1.059674730000000065e-01 -3.245640180000000097e-01 1.662902349699999860e+01
4.152228224999999995e+00 0.000000000000000000e+00 0.000000000000000000e+00 3.248993099999999967e-02 2.448832755000000194e+00 0.000000000000000000e+00 2.840868249999999873e-01 -3.720022009999999768e-01 1.926002767299999974e+01
4.195181962000000375e+00 0.000000000000000000e+00 0.000000000000000000e+00 -5.768083799999999817e-02 2.677543242000000046e+00 0.000000000000000000e+00 1.522728969999999904e-01 4.192930959999999763e-01 1.708616469800000104e+01
4.338288176999999912e+00 0.000000000000000000e+00 0.000000000000000000e+00 -4.320450700000000310e-02 2.480585673999999852e+00 0.000000000000000000e+00 1.293385760000000106e-01 -5.093629200000000107e-02 1.766637582199999912e+01
4.023551192000000221e+00 0.000000000000000000e+00 0.000000000000000000e+00 1.752908400000000033e-02 2.468806214000000221e+00 0.000000000000000000e+00 -3.431387160000000103e-01 1.597786810000000057e-01 2.043003801600000102e+01
4.117242323000000148e+00 0.000000000000000000e+00 0.000000000000000000e+00 -3.384475700000000309e-02 2.469473365999999892e+00 0.000000000000000000e+00 5.683270030000000528e-01 5.289401860000000344e-01 2.154484803900000145e+01
4.259919470999999902e+00 0.000000000000000000e+00 0.000000000000000000e+00 -4.006088000000000010e-02 2.485214067999999887e+00 0.000000000000000000e+00 1.465866300000000060e-02 2.881430289999999950e-01 2.062310294199999916e+01
4.415294274999999935e+00 0.000000000000000000e+00 0.000000000000000000e+00 -6.572090499999999613e-02 2.712670934000000145e+00 0.000000000000000000e+00 -9.175711999999999757e-02 -4.597658900000000104e-01 1.578843501899999957e+01
4.470849869000000254e+00 0.000000000000000000e+00 0.000000000000000000e+00 4.379647200000000296e-02 2.761560686000000153e+00 0.000000000000000000e+00 -1.234163270000000062e-01 1.256965660000000096e-01 1.486907865499999915e+01
4.338288176999999912e+00 0.000000000000000000e+00 0.000000000000000000e+00 -4.320450700000000310e-02 2.480585673999999852e+00 0.000000000000000000e+00 1.293385760000000106e-01 -5.093629200000000107e-02 1.766637582199999912e+01
4.255225975000000105e+00 0.000000000000000000e+00 0.000000000000000000e+00 -3.942282099999999678e-02 2.530339362999999953e+00 0.000000000000000000e+00 -5.319207199999999996e-02 -5.623247479999999854e-01 2.292325197999999986e+01
4.101660219000000218e+00 0.000000000000000000e+00 0.000000000000000000e+00 -6.574444100000000069e-02 2.523760197000000094e+00 0.000000000000000000e+00 -2.010760269999999905e-01 -4.423850590000000249e-01 2.024063922599999898e+01
