-3.930586841000000220e+01
-4.004826362000000017e+01
-4.088628903000000037e+01
-4.079736840999999714e+01
-4.063473473999999896e+01
-3.943259816999999856e+01
-4.048578512999999646e+01
-4.069082769999999982e+01
-4.068989728999999755e+01
-3.947983072000000249e+01
-4.029564333999999803e+01
-4.094632382000000348e+01
-3.982356702999999953e+01
-4.027575198000000256e+01
-3.996985589999999888e+01
-4.039044392000000272e+01
-4.020571158999999994e+01
-4.026978383000000150e+01
-3.905573681999999991e+01
