-1.404079999999999995e+00 -1.867209999999999981e-01 6.863650000000000029e-01 1.624799999999999855e-02 -2.370750000000000079e-01 -1.485867000000000049e+00 -1.207413000000000070e+00 -3.106519999999999837e-01 1.138079000000000063e+00 -1.162676999999999961e+00 7.768429999999999502e-01 -6.250400000000000400e-02 1.299190000000000067e-01 4.856190000000000229e-01 -4.981960000000000277e-01 -5.294039999999999857e-01 -4.977759999999999962e-01 -1.715609999999999913e-01 1.481311999999999962e+00 4.361189999999999789e-01 3.603120000000000211e-01 2.491858000000000128e+00 1.820478999999999958e+00 -3.170224000000000153e+00 1.127318999999999960e+00 -2.023399999999999921e-01 3.665008999999999961e+00 2.406057000000000112e+00 -3.583629999999999871e-01 4.239199999999999913e-02 -1.995986999999999956e+00 -1.257184999999999997e+00 9.312390000000000390e-01 -1.353153000000000050e+00 -4.689459999999999740e-01 -1.435043000000000069e+00
-2.253066000000000013e+00 -1.581339999999999968e-01 3.522299999999999737e-02 -1.763225999999999960e+00 -2.266132999999999953e+00 4.824893000000000320e+00 8.140220000000000233e-01 1.554220000000000046e-01 5.206760000000000277e-01 -2.332269999999999899e-01 -5.980729999999999658e-01 -2.240070000000000117e-01 1.358686999999999978e+00 2.460779000000000050e+00 -4.360032000000000352e+00 -5.635600000000000331e-02 -9.259399999999999853e-01 -8.522480000000000055e-01 3.649530000000000274e-01 4.019010000000000082e-01 5.806719999999999660e-01 5.880520000000000191e-01 4.252190000000000136e-01 1.775699999999999848e-02 -8.931310000000000082e-01 1.200969999999999954e-01 3.211269999999999958e-01 1.057341000000000086e+00 8.015419999999999767e-01 4.328300000000000203e-02 1.598880000000000079e+00 5.062599999999999739e-02 -4.955829999999999957e-01 -5.829280000000000017e-01 -4.673059999999999992e-01 -4.117600000000000149e-01
-5.643880000000000008e-01 1.396620000000000084e-01 -3.192849999999999855e-01 8.124099999999999377e-02 -1.196890000000000037e-01 1.509560000000000068e-01 -1.586807999999999996e+00 5.802899999999999725e-02 -5.546999999999999847e-03 1.549206000000000083e+00 5.106000000000000122e-02 1.416447999999999929e+00 -4.340519999999999934e-01 7.153299999999999936e-02 7.957959999999999479e-01 -1.938499999999999945e-02 -1.825769999999999893e-01 -7.844160000000000021e-01 -1.060014000000000012e+00 7.894259999999999611e-01 -1.125092999999999899e+00 4.473650000000000126e-01 -8.549930000000000030e-01 -3.204512999999999945e+00 3.771379999999999733e-01 -3.010399999999999743e-01 2.306429999999999869e-01 9.910449999999999537e-01 -1.157019999999999993e-01 2.745041000000000064e+00 3.307080000000000020e-01 9.775699999999999668e-02 2.423379999999999979e-01 -1.120560000000000028e-01 3.665340000000000265e-01 -1.423679999999999946e-01
1.623880000000000046e-01 -8.350170000000000092e-01 -6.380500000000000060e-01 3.734410000000000229e-01 1.119750000000000051e-01 5.322170000000000512e-01 -2.156740000000000046e-01 4.745219999999999994e-01 7.111819999999999808e-01 -4.098220000000000196e-01 -3.976160000000000250e-01 -2.614620000000000277e-01 1.926070000000000004e-01 -3.638779999999999792e-01 7.247639999999999638e-01 5.804820000000000535e-01 -8.798999999999999530e-03 -5.243959999999999733e-01 -2.193009999999999959e-01 4.325829999999999953e-01 2.191299999999999915e-01 -4.358310000000000239e-01 -1.396538999999999975e+00 3.603797000000000139e+00 -2.960530000000000106e-01 5.465109999999999690e-01 -6.415999999999999481e-02 -6.198999999999999649e-03 1.209548999999999985e+00 -3.804408000000000012e+00 3.775599999999999790e-02 -2.970499999999999877e-02 -6.300759999999999694e-01 2.362070000000000003e-01 2.564130000000000020e-01 1.314629999999999965e-01
6.351769999999999916e-01 5.656449999999999534e-01 -5.398370000000000113e-01 4.320049999999999724e-01 -9.335160000000000124e-01 -3.544452000000000158e+00 1.066720000000000029e-01 8.024240000000000261e-01 3.368685999999999847e+00 -2.533799999999999941e-01 -5.795930000000000248e-01 8.044080000000000119e-01 2.018500000000000155e-02 -6.333990000000000453e-01 -6.554729999999999723e-01 3.927189999999999848e-01 -1.861349999999999949e-01 1.426340000000000108e-01 3.944590000000000041e-01 -1.514129999999999920e-01 -1.912399999999999864e-02 -1.535544999999999938e+00 2.857600000000000140e-01 -5.324619999999999909e-01 -6.459470000000000489e-01 4.865439999999999765e-01 -2.554449999999999776e-01 -7.914700000000000069e-01 2.171180000000000054e-01 1.493289999999999895e-01 1.335904999999999898e+00 -1.238270000000000065e-01 1.634903999999999913e+00 -9.078100000000000058e-02 2.503929999999999767e-01 -5.531669999999999643e-01
2.020750000000000046e-01 -3.064509999999999734e-01 -2.376500000000000001e-01 -5.024459000000000231e+00 1.852540999999999993e+00 -3.803389999999999826e-01 1.101869999999999933e-01 1.000790000000000013e-01 2.403540000000000121e-01 6.769279999999999742e-01 -8.358090000000000241e-01 1.677459000000000033e+00 4.007189999999999919e-01 -2.500269999999999992e-01 -4.920809999999999906e-01 -1.171027999999999958e+00 7.543769999999999643e-01 -2.200509999999999966e-01 6.386089999999999822e-01 2.627030000000000198e-01 2.793629999999999725e-01 4.457296000000000369e+00 -1.442628000000000021e+00 2.995209999999999817e-01 2.105569999999999942e-01 2.713000000000000134e-03 -8.148389999999999800e-01 -1.357859999999999900e-01 -8.296160000000000201e-01 -7.686819999999999764e-01 -3.277919999999999723e-01 1.130022000000000082e+00 1.969680000000000042e-01 -3.730499999999999788e-02 -4.379049999999999887e-01 2.199760000000000049e-01
9.844460000000000433e-01 4.432849999999999846e-01 1.828686999999999951e+00 -2.876700000000000090e-02 -2.704420000000000157e-01 1.266930000000000001e-01 -1.607590000000000130e-01 -1.063899999999999985e-01 3.905000000000000138e-02 1.036462999999999912e+00 5.334290000000000420e-01 -9.498170000000000224e-01 -7.993259999999999810e-01 -9.239600000000000590e-02 4.218470000000000275e-01 -2.646510000000000251e-01 2.186089999999999978e-01 2.442189999999999916e-01 9.798069999999999835e-01 4.856100000000000000e-02 1.198789999999999994e-01 -4.802779999999999827e-01 -4.938879999999999937e-01 -3.460074999999999790e+00 -4.104749999999999788e-01 -3.065620000000000012e-01 2.967715000000000103e+00 1.968070000000000097e-01 7.539999999999999480e-02 7.005799999999999528e-02 -2.808689999999999798e-01 1.392720000000000069e-01 -6.102109999999999479e-01 -7.723970000000000002e-01 -1.888779999999999903e-01 -7.980429999999999469e-01
6.735539999999999861e-01 6.196000000000000119e-02 2.020740000000000036e-01 2.130090000000000039e-01 3.114399999999999946e-01 8.372119999999999562e-01 -5.212579999999999991e-01 3.201999999999999846e-01 6.476509999999999767e-01 6.928060000000000329e-01 -6.064060000000000006e-01 -1.794719999999999926e-01 -5.359650000000000247e-01 6.943270000000000275e-01 -3.237709999999999755e-01 9.280500000000000416e-01 4.797599999999999781e-02 -3.405020000000000269e-01 1.632843000000000044e+00 -4.577490000000000170e-01 3.286499999999999977e-01 -1.408285999999999927e+00 3.897229999999999861e-01 1.108999999999999986e-01 -1.192301000000000055e+00 -2.520535000000000192e+00 -4.712077999999999989e+00 2.392930000000000057e-01 -1.345570000000000099e-01 -5.253659999999999997e-01 3.511399999999999938e-02 2.139787000000000106e+00 3.951252999999999904e+00 -7.568580000000000307e-01 -2.461659999999999959e-01 3.448999999999999809e-03
4.917639999999999789e-01 -2.289700000000000069e-02 5.797949999999999493e-01 -2.228300000000000003e-01 1.219260000000000066e-01 2.220870000000000066e-01 -1.145250000000000018e-01 2.134320000000000106e-01 -1.319280999999999926e+00 -9.719000000000000208e-03 -7.285960000000000214e-01 3.763548999999999811e+00 9.029399999999999649e-01 1.893360000000000043e-01 -7.818899999999999739e-01 -3.607489999999999863e-01 -9.140999999999999820e-03 2.645140000000000269e-01 -1.864503999999999939e+00 -1.147009999999999974e-01 -1.143600000000000033e-01 1.483100000000000043e-02 -2.068470000000000031e-01 -2.656459999999999932e-01 -2.536930000000000018e-01 2.911210000000000186e-01 -3.835703000000000085e+00 -7.689820000000000544e-01 6.747400000000000064e-01 6.320360000000000422e-01 1.443100000000000049e+00 3.216930000000000067e-01 5.716510000000000202e-01 7.423659999999999703e-01 -7.300670000000000215e-01 2.832479999999999998e-01
7.397749999999999604e-01 -1.697380000000000000e-01 -1.124639999999999945e-01 9.887799999999999367e-02 1.207090999999999914e+00 2.909400999999999904e+00 4.831869999999999776e-01 -3.952359999999999762e-01 2.025430000000000008e-01 -6.513759999999999550e-01 -1.214400000000000063e-01 -2.338010000000000088e-01 -1.494209999999999983e-01 -2.076739999999999975e-01 -5.903979999999999784e-01 -2.921309999999999740e-01 1.872590000000000088e-01 -1.376762999999999959e+00 -2.858439999999999870e-01 -7.656200000000000505e-02 5.073640000000000372e-01 -8.144600000000000450e-02 9.413299999999999446e-02 -3.864060000000000272e-01 8.617299999999999960e-02 5.508269999999999555e-01 5.398429999999999618e-01 7.126540000000000097e-01 -2.486599999999999921e-02 3.977479999999999905e-01 -3.847579999999999889e-01 5.530600000000000099e-02 4.843239999999999768e-01 -2.756899999999999906e-01 -1.099099999999999966e+00 -2.341390999999999778e+00
1.598729999999999873e-01 -2.015493000000000201e+00 -3.441123999999999850e+00 -3.653919999999999946e-01 1.805239999999999900e-01 9.238570000000000393e-01 -2.340150000000000008e-01 -5.844810000000000283e-01 -7.650730000000000031e-01 -5.272419999999999884e-01 2.330200000000000049e-01 -3.478689999999999838e-01 4.178490000000000260e-01 9.050439999999999596e-01 3.646059999999999857e-01 -1.826990000000000003e-01 -3.444280000000000119e-01 -1.561396000000000006e+00 -1.340230000000000032e-01 -5.472110000000000030e-01 1.760510000000000130e-01 -3.016229999999999745e-01 1.153288000000000091e+00 3.102818000000000076e+00 5.025979999999999892e-01 2.855509999999999993e-01 1.479754999999999932e+00 1.733339999999999881e-01 7.356230000000000269e-01 5.768330000000000402e-01 3.630829999999999891e-01 -4.783910000000000107e-01 5.886069999999999913e-01 1.282570000000000099e-01 4.769539999999999891e-01 -1.097064999999999957e+00
-1.304220000000000101e-01 1.074409999999999948e-01 -3.026179999999999981e-01 -1.429024999999999990e+00 -2.831580000000000208e-01 4.037629999999999830e-01 -6.114450000000000163e-01 3.661869999999999847e-01 -1.098784999999999901e+00 1.731620000000000104e-01 1.591639999999999999e-01 6.392370000000000552e-01 3.216720000000000135e-01 -1.870130000000000126e-01 1.091121999999999925e+00 -1.703900000000000137e-01 -9.016119999999999690e-01 -3.425699999999999967e+00 5.411759999999999904e-01 2.372239999999999904e-01 3.307884000000000047e+00 -2.734539999999999749e-01 -1.200490000000000029e-01 8.691590000000000149e-01 5.153499999999999748e-02 6.216549999999999576e-01 -5.986860000000000515e-01 8.742640000000000411e-01 -4.689800000000000219e-02 -6.661230000000000206e-01 4.875659999999999994e-01 1.387130000000000030e-01 -5.286870000000000180e-01 1.653610000000000080e-01 -9.165399999999999936e-02 3.094350000000000156e-01
1.949384999999999923e+00 -3.288340000000000152e-01 -1.890500000000000166e-02 -3.396620000000000195e-01 -9.922680000000000389e-01 -4.296014000000000443e+00 1.012089000000000016e+00 -7.214120000000000532e-01 -2.770989999999999842e-01 -1.196965000000000057e+00 1.495327000000000073e+00 3.408993999999999858e+00 -5.903709999999999791e-01 6.973089999999999566e-01 8.082699999999999607e-02 -2.210600000000000065e-02 -1.183919999999999972e-01 -9.769309999999999938e-01 -1.216060000000000058e-01 -1.580700000000000160e-02 -4.903460000000000041e-01 -7.966729999999999645e-01 -1.904830000000000134e-01 5.681180000000000119e-01 -1.285870000000000068e-01 6.548400000000000054e-02 8.982839999999999714e-01 -4.845829999999999860e-01 2.830980000000000163e-01 8.473739999999999606e-01 5.112699999999999884e-02 -1.821669999999999956e-01 -3.334400000000000142e-01 6.679540000000000477e-01 8.146000000000000463e-03 5.891380000000000505e-01
-3.051610000000000156e-01 2.544910000000000228e-01 1.546099999999999974e-01 -8.350239999999999885e-01 -7.610599999999999310e-02 -6.667800000000000116e-02 6.570900000000000352e-02 1.463122999999999951e+00 -3.469120999999999899e+00 4.396360000000000268e-01 2.728030000000000177e-01 1.556585000000000107e+00 4.671299999999999897e-01 -1.439918999999999949e+00 4.128917000000000392e+00 4.715429999999999899e-01 -4.132449999999999735e-01 -1.048762999999999890e+00 -1.347406000000000104e+00 -3.099919999999999898e-01 5.483820000000000361e-01 8.039920000000000400e-01 1.492999999999999883e-01 4.015349999999999753e-01 -5.803009999999999557e-01 7.273260000000000280e-01 1.542729999999999935e-01 -6.280499999999999972e-01 -4.549159999999999870e-01 -9.592079999999999496e-01 -3.258130000000000193e-01 3.831910000000000038e-01 -2.972130000000000050e-01 1.773744999999999905e+00 -5.560559999999999947e-01 -1.103320000000000078e+00
2.186299999999999910e-01 7.971570000000000045e-01 -7.507000000000000339e-01 2.242169999999999996e-01 2.546689999999999787e-01 1.617889999999999884e-01 -9.598860000000000170e-01 3.546869999999999745e-01 -5.531629999999999603e-01 1.823584000000000094e+00 3.858269999999999755e-01 -7.850510000000000543e-01 -1.214711000000000096e+00 1.737090000000000023e-01 3.263550000000000062e-01 -8.370480000000000143e-01 6.426490000000000258e-01 1.512179999999999913e-01 8.564499999999999891e-02 -6.615560000000000329e-01 2.127210999999999963e+00 -3.888352999999999948e+00 4.781469999999999887e-01 4.387753000000000014e+00 2.795500000000000068e-02 -7.524459999999999482e-01 1.563860999999999946e+00 1.119194999999999940e+00 -1.085056999999999938e+00 -1.076919999999999961e-01 3.714771999999999963e+00 -1.133262999999999909e+00 -5.045136000000000287e+00 -3.140000000000000013e-01 5.454759999999999609e-01 -1.476445999999999925e+00
7.248799999999999688e-01 1.633539999999999992e-01 -1.982480000000000075e-01 -4.282179999999999875e-01 2.308679999999999899e-01 4.739100000000000257e-02 7.164620000000000433e-01 -3.927620000000000000e-01 5.273170000000000357e-01 -1.091107999999999967e+00 -9.510239999999999805e-01 -2.555198999999999998e+00 5.079059999999999686e-01 3.264199999999999879e-01 1.945179999999999965e-01 -8.812959999999999683e-01 -6.715100000000000513e-01 -1.651747000000000076e+00 -4.080210000000000226e-01 -2.497640000000000138e-01 3.153460000000000152e-01 6.540110000000000090e-01 2.010240000000000082e-01 1.268256000000000050e+00 4.220130000000000270e-01 1.397200000000000109e-01 -8.604140000000000121e-01 -3.978550000000000142e-01 1.605650000000000133e-01 -5.238559999999999883e-01 -5.798450000000000548e-01 -3.268599999999999978e-02 6.980859999999999843e-01 7.610700000000000243e-01 1.075795000000000057e+00 2.738551000000000180e+00
-3.904960000000000098e-01 3.160819999999999741e-01 3.400999999999999857e-02 4.406140000000000057e-01 -2.292420000000000013e-01 3.487759999999999749e-01 -9.706839999999999913e-01 4.459310000000000218e-01 5.402150000000000007e-01 -2.874689999999999745e-01 1.379669999999999952e+00 5.305231000000000030e+00 7.080699999999999494e-02 -6.200300000000000256e-02 -2.621560000000000001e-01 -2.622829999999999884e-01 -2.685629999999999962e-01 5.065269999999999495e-01 -7.006900000000000628e-02 -1.556313000000000057e+00 -5.427081000000000266e+00 -1.881770000000000109e-01 2.394660000000000122e-01 -7.159090000000000176e-01 2.401909999999999878e-01 -2.027150000000000063e-01 -8.125300000000000578e-02 1.914109999999999978e-01 1.114419999999999994e-01 2.041119999999999879e-01 1.874300000000000133e-01 2.624870000000000259e-01 -4.486800000000000233e-01 1.038723999999999981e+00 -4.362429999999999919e-01 -3.792999999999999931e-03
-6.349559999999999649e-01 1.630179999999999962e-01 1.923850000000000005e-01 1.220020000000000104e+00 2.326840999999999937e+00 3.147943000000000158e+00 -1.077463000000000060e+00 -1.951890000000000014e-01 3.361580000000000124e-01 -6.869539999999999536e-01 -2.141180000000000028e-01 1.132328000000000001e+00 1.076619999999999910e+00 -2.498249999999999915e-01 -9.830680000000000529e-01 6.304990000000000316e-01 2.450450000000000128e-01 -1.606160000000000088e-01 -1.683966000000000074e+00 -5.357370000000000188e-01 -1.875779999999999947e-01 6.240480000000000471e-01 8.865099999999999369e-02 3.954779999999999962e-01 7.619289999999999674e-01 -1.959862999999999911e+00 -3.656156000000000184e+00 6.436140000000000194e-01 1.863700000000000079e-02 -9.224599999999999467e-02 -5.989259999999999584e-01 5.099270000000000191e-01 3.148469999999999880e-01 -2.744639999999999858e-01 -1.973860000000000059e-01 -4.394750000000000045e-01
8.515049999999999564e-01 6.706499999999999684e-01 -7.558650000000000091e-01 -1.346443000000000056e+00 -3.481999999999999679e-02 3.080109999999999792e-01 -7.908659999999999579e-01 -6.795769999999999866e-01 9.112000000000000308e-03 -3.383260000000000156e-01 -2.281000000000000041e-03 8.598050000000000415e-01 4.810440000000000271e-01 5.315819999999999990e-01 8.443249999999999922e-01 1.806540000000000090e-01 1.668916999999999984e+00 -3.772858999999999963e+00 -3.444809999999999817e-01 2.908439999999999914e-01 -3.071070000000000189e-01 3.679209999999999980e-01 3.029370000000000118e-01 -6.215359999999999774e-01 -7.869589999999999641e-01 -7.988349999999999618e-01 7.044700000000000406e-01 -2.035089999999999955e-01 -5.604930000000000190e-01 -6.640639999999999876e-01 2.506829999999999892e-01 -4.637950000000000128e-01 1.235350000000000059e-01 1.678778000000000103e+00 -9.251279999999999504e-01 3.272174000000000138e+00
