8.412018284652837963e+00 2.633537806829211458e+00 -1.158707769095672635e+00 2.633537806829211458e+00 -1.808195339206198682e+00 -2.341422513498653046e+00 -1.158707769095672635e+00 -2.341422513498653046e+00 7.455148627979254705e+00
6.379980958355700338e+00 2.534865141327927507e+00 -2.347547451155628462e+00 2.534865141327927507e+00 -1.093503878331790302e+00 -3.304302338167049324e+00 -2.347547451155628462e+00 -3.304302338167049324e+00 6.989715964229363365e+00
-1.509705790711269202e+00 -7.431447111534040806e-01 1.105943074535248982e+00 -7.431447111534040806e-01 1.119099091727140838e+00 8.092901729917990616e-01 1.105943074535248982e+00 8.092901729917990616e-01 5.886219080184583952e+00
-2.798068844546678147e+00 -6.681004945489767977e-01 -6.882000898692142155e-01 -6.681004945489767977e-01 -5.788949825824102113e+00 -2.633206811108536272e+00 -6.882000898692142155e-01 -2.633206811108536272e+00 2.184092732611432996e+00
2.604545571700576545e+00 -4.268377360426689471e-02 6.068139857110654845e-01 -4.268377360426689471e-02 3.206380080059172855e+00 2.485468794913478607e+00 6.068139857110654845e-01 2.485468794913478607e+00 7.274591201233743476e+00
8.992206759171583741e+00 -2.192851094047795879e+00 1.164676414351713873e+00 -2.192851094047795879e+00 -9.046737818286079147e+00 -9.954316573747947761e-01 1.164676414351713873e+00 -9.954316573747947761e-01 2.052948421817065938e+00
-2.219643080904079913e+00 2.497729396452896378e+00 1.905242033477993369e+00 2.497729396452896378e+00 -5.469381256128633240e+00 2.697305558591901464e-01 1.905242033477993369e+00 2.697305558591901464e-01 3.568121810424635942e+00
1.786098873536394072e+00 -2.240046976046211336e-01 -1.464520285405597477e-01 -2.240046976046211336e-01 -1.946638122961139805e+00 4.502823892438215125e+00 -1.464520285405597477e-01 4.502823892438215125e+00 6.658931176787608486e+00
2.571695765145597612e+00 9.000544645024541879e-01 -1.606619697702123428e+00 9.000544645024541879e-01 3.736217455867259396e+00 -1.165610782708135451e+00 -1.606619697702123428e+00 -1.165610782708135451e+00 8.401750625467258260e+00
-5.700385854997458424e+00 -5.769949254739601407e-01 -1.480932199593951504e+00 -5.769949254739601407e-01 -1.399118808660970181e+01 3.720490102890288586e+00 -1.480932199593951504e+00 3.720490102890288586e+00 3.215473548725694908e+00
5.224759202906541944e+00 -1.595230141960677805e+00 -6.766634404053177843e-01 -1.595230141960677805e+00 5.757620374553937381e+00 2.605777277578853024e+00 -6.766634404053177843e-01 2.605777277578853024e+00 6.047398790096011112e+00
4.951261651460967528e+00 9.110985971939997499e-03 -9.748311663812836425e-01 9.110985971939997499e-03 4.524465221147442762e+00 -3.273925714082128180e-01 -9.748311663812836425e-01 -3.273925714082128180e-01 1.230334980520672694e+01
2.676769869104254074e+00 1.271434754086162577e-01 -4.189624506087799571e-02 1.271434754086162577e-01 3.012777945905683374e+00 2.997028742274959523e+00 -4.189624506087799571e-02 2.997028742274959523e+00 5.843625860392096527e+00
3.709906646923396334e+00 1.762861605856500757e+00 1.134655431123888114e+00 1.762861605856500757e+00 2.854408535896874710e+00 -1.534927825217572206e+00 1.134655431123888114e+00 -1.534927825217572206e+00 8.327764123947904551e+00
4.813489760054637578e+00 -1.724305743403885760e+00 -5.274345868970827134e+00 -1.724305743403885760e+00 -5.119811661272795078e+00 -5.635358456678740691e-01 -5.274345868970827134e+00 -5.635358456678740691e-01 1.559158329801618947e+01
-6.486322470790057082e+00 -8.008721896685784269e-01 5.414367532121034943e-01 -8.008721896685784269e-01 -1.217778489641898254e+01 9.738562651678652760e-01 5.414367532121034943e-01 9.738562651678652760e-01 -1.926487265449901287e-01
-5.499058230428885530e+00 -4.290822281878619582e-01 -2.153017340801822166e-01 -4.290822281878619582e-01 1.969429069674137001e+00 4.447818518853591030e+00 -2.153017340801822166e-01 4.447818518853591030e+00 1.475169658982653065e+00
2.990318068880897240e-01 7.375283968610415464e-01 -3.403631784378937208e+00 7.375283968610415464e-01 4.785916945155913038e-01 2.269354879656041213e+00 -3.403631784378937208e+00 2.269354879656041213e+00 6.930090739783701714e+00
3.621034283516514574e+00 1.576537504551713598e+00 -2.084310940986459748e+00 1.576537504551713598e+00 1.372342966842799161e-01 -3.226474564754261642e+00 -2.084310940986459748e+00 -3.226474564754261642e+00 9.608108677099798101e+00
