6.873400000000000176e+00 4.974459999999999660e+00 4.210490000000000066e+00 3.366460000000000008e+00 1.288010000000000099e+00 1.343499999999999972e-01 3.739259999999999806e+00 9.007699999999999596e-01 3.572010000000000129e+00 2.513450000000000184e+00 3.843090000000000117e+00 7.052640000000000242e+00 4.449679999999999858e+00 4.249179999999999957e+00 5.986790000000000056e+00 6.104190000000000005e+00 6.827900000000000080e-01 3.126149999999999984e+00 1.910940000000000083e+00 4.469769999999999577e+00 4.450059999999999683e+00 2.393409999999999815e+00 2.891779999999999795e+00 2.211539999999999839e+00 5.617020000000000124e+00 2.283720000000000194e+00 6.704430000000000334e+00 5.536999999999999700e-01 2.744730000000000114e+00 5.279209999999999958e+00 5.325650000000000439e+00 3.273470000000000102e+00 1.252869999999999928e+00 7.588350000000000151e+00 2.099740000000000162e+00 1.995149999999999979e+00 1.087809999999999944e+00 6.326300000000000257e-01 2.791929999999999801e+00 6.909320000000000128e+00 4.770870000000000388e+00 7.714430000000000121e+00 3.281299999999999883e+00 1.841539999999999955e+00 5.750239999999999796e+00 4.891020000000000145e+00 7.748350000000000293e+00 1.297819999999999974e+00 2.952240000000000197e+00 6.198439999999999728e+00 3.152369999999999894e+00 1.917550000000000088e+00 6.539899999999999602e-01 7.272649999999999615e+00 5.374299999999999633e-01 6.109589999999999854e+00 3.122009999999999952e+00 6.727030000000000065e+00 5.188300000000000134e-01 5.542559999999999931e+00 5.584489999999999732e+00 7.033240000000000158e+00 7.085130000000000372e+00 1.305180000000000007e+00 7.674100000000000144e+00 4.940780000000000172e+00 6.033500000000000529e-01 5.602089999999999570e+00 5.976429999999999687e+00 3.069490000000000052e+00 6.324370000000000047e+00 5.836750000000000327e+00 6.435010000000000119e+00 6.208569999999999922e+00 2.160079999999999778e+00 6.298639999999999795e+00 2.692810000000000148e+00 4.141569999999999752e+00 7.789019999999999833e+00 4.181890000000000107e+00 1.977810000000000068e+00 7.578630000000000422e+00 1.562270000000000048e+00 7.394459999999999589e+00 4.071139999999999759e+00 5.304789999999999672e+00 1.307809999999999917e+00 5.148520000000000429e+00 6.643650000000000055e+00 4.547589999999999577e+00 5.450399999999999689e-01 6.285120000000000040e+00 6.267399999999999638e-01 3.983620000000000161e+00 3.995859999999999967e+00 3.502569999999999961e+00
5.256009999999999849e+00 2.897130000000000205e+00 3.964490000000000069e+00 6.997959999999999958e+00 6.439729999999999954e+00 5.380510000000000126e+00 7.120709999999999873e+00 4.048479999999999634e+00 3.449479999999999880e+00 7.256479999999999819e+00 4.757889999999999731e+00 7.469159999999999577e+00 9.226699999999999902e-01 4.796310000000000073e+00 1.212259999999999893e+00 1.233079999999999954e+00 6.516519999999999868e+00 7.235560000000000436e+00 2.506289999999999907e+00 6.719009999999999927e+00 1.840179999999999927e+00 4.044469999999999565e+00 3.096800000000000108e-01 5.357600000000000140e-01 2.098199999999999843e+00 2.237610000000000099e+00 7.397009999999999863e+00 6.502810000000000201e+00 1.634100000000000108e+00 5.917390000000000150e+00 1.216600000000000042e-01 6.186480000000000423e+00 2.967169999999999863e+00 6.116139999999999688e+00 2.613170000000000215e+00 1.356340000000000101e+00 7.219999999999999855e-03 1.343760000000000066e+00 3.291370000000000129e+00 2.233989999999999920e+00 4.649079999999999657e+00 3.443599999999999994e+00 3.001219999999999999e+00 9.373299999999999965e-01 2.646650000000000169e+00 1.130020000000000024e+00 2.723640000000000061e+00 1.640840000000000076e+00 6.358220000000000205e+00 7.823140000000000427e+00 7.539620000000000211e+00 3.352320000000000189e+00 3.934379999999999988e+00 1.444949999999999957e+00 5.497959999999999958e+00 5.475979999999999848e+00 1.911990000000000078e+00 8.090199999999999614e-01 1.653100000000000125e-01 1.232099999999999973e+00 6.465819999999999901e+00 7.544800000000000395e+00 1.904830000000000023e+00 4.856830000000000425e+00 3.181049999999999933e+00 7.093090000000000117e+00 2.244069999999999787e+00 7.085079999999999600e+00 4.268749999999999822e+00 4.592200000000000171e-01 3.101800000000000113e-01 6.115319999999999645e+00 4.579570000000000363e+00 5.616329999999999600e+00 4.734200000000000408e+00 2.670080000000000009e+00 4.514590000000000103e+00 6.497989999999999711e+00 4.102759999999999962e+00 7.610380000000000145e+00 5.842810000000000059e+00 4.482099999999999973e+00 7.034900000000000375e+00 3.566370000000000040e+00 8.238199999999999967e-01 5.188410000000000188e+00 5.491859999999999964e+00 4.494710000000000427e+00 5.858539999999999637e+00 7.556099999999999817e+00 2.974299999999999944e+00 1.928679999999999950e+00 4.959050000000000402e+00 4.704900000000000193e-01 2.935039999999999871e+00 5.109880000000000422e+00
5.741760000000000197e+00 2.524770000000000181e+00 4.327200000000000379e+00 3.851799999999999891e+00 6.413499999999999979e+00 7.067809999999999704e+00 1.743640000000000079e+00 5.494049999999999656e+00 7.613990000000000258e+00 4.170530000000000292e+00 3.941879999999999828e+00 6.119369999999999976e+00 5.362999999999999712e-02 7.794699999999999740e+00 6.982500000000000373e-01 4.826179999999999914e+00 2.557519999999999794e+00 1.797290000000000054e+00 1.530980000000000008e+00 2.463989999999999903e+00 4.768679999999999808e+00 1.340750000000000108e+00 6.711199999999999832e+00 5.767680000000000362e+00 1.395899999999999919e-01 7.023099999999999898e-01 6.398349999999999760e+00 3.640579999999999927e+00 4.434490000000000265e+00 3.352180000000000160e+00 5.260500000000000398e+00 6.188360000000000305e+00 4.436429999999999652e+00 2.596379999999999910e+00 2.368009999999999948e+00 6.570000000000000319e-03 1.417100000000000026e-01 3.351220000000000088e+00 2.940549999999999997e+00 1.553010000000000002e+00 5.184809999999999697e+00 3.865940000000000154e+00 1.940560000000000063e+00 1.143629999999999924e+00 2.175629999999999953e+00 7.218820000000000014e+00 5.405619999999999870e+00 5.168639999999999901e+00 5.588100000000000289e-01 7.517019999999999591e+00 3.535190000000000055e+00 5.834609999999999630e+00 4.609409999999999563e+00 2.839189999999999880e+00 6.631649999999999601e+00 6.691399999999999570e-01 4.872709999999999653e+00 2.198389999999999844e+00 3.822890000000000121e+00 1.752599999999999936e+00 7.074659999999999727e+00 3.236829999999999874e+00 6.228570000000000384e+00 5.055740000000000123e+00 6.740149999999999864e+00 1.646660000000000013e+00 3.800489999999999924e+00 6.526300000000000434e-01 9.011099999999999666e-01 6.239139999999999908e+00 1.476329999999999920e+00 7.549269999999999925e+00 7.109740000000000393e+00 2.027179999999999982e+00 1.598489999999999966e+00 4.154580000000000162e+00 4.788649999999999629e+00 3.475199999999999956e-01 3.992910000000000181e+00 1.073550000000000004e+00 5.773410000000000153e+00 7.581179999999999808e+00 4.213589999999999947e+00 2.972299999999999942e-01 6.439199999999999591e+00 5.370569999999999844e+00 7.179420000000000357e+00 2.788250000000000117e+00 6.236430000000000362e+00 1.732890000000000041e+00 3.283300000000000107e+00 1.514289999999999914e+00 3.376910000000000078e+00 -6.278000000000000247e-02 5.611049999999999649e+00 2.242490000000000094e+00
7.343790000000000262e+00 2.327599999999999891e+00 2.829530000000000101e+00 1.994639999999999969e+00 4.767310000000000159e+00 6.286170000000000258e+00 6.653319999999999901e+00 3.889019999999999921e+00 5.651589999999999669e+00 5.069480000000000430e+00 4.177340000000000053e+00 2.486959999999999837e+00 5.886549999999999727e+00 4.836000000000000021e-02 5.546100000000000474e-01 4.840069999999999872e+00 1.414639999999999898e+00 2.578629999999999978e+00 1.987069999999999892e+00 2.478689999999999838e+00 7.673309999999999853e+00 1.240760000000000085e+00 8.042300000000000004e-01 5.627720000000000056e+00 3.127250000000000085e+00 7.582299999999999596e-01 1.750200000000000089e-01 3.477889999999999926e+00 7.436169999999999725e+00 2.093269999999999964e+00 5.712489999999999846e+00 6.034609999999999808e+00 5.090150000000000396e+00 3.197630000000000194e+00 4.201529999999999987e+00 1.201210000000000111e+00 1.397899999999999920e+00 4.198610000000000397e+00 4.038890000000000313e+00 3.496849999999999792e+00 2.946320000000000050e+00 4.375639999999999752e+00 7.467099999999999849e-01 8.020379999999999399e+00 9.637799999999999701e-01 8.076999999999999735e-01 6.025120000000000253e+00 5.044100000000000250e+00 8.170000000000000179e-03 7.884800000000000253e+00 3.672610000000000152e+00 7.707930000000000170e+00 4.782740000000000435e+00 2.414320000000000022e+00 6.912720000000000198e+00 1.430719999999999992e+00 5.204259999999999664e+00 7.026060000000000194e+00 4.480000000000000426e+00 7.886809999999999654e+00 8.137999999999999401e-02 2.098970000000000002e+00 1.382400000000000018e-01 3.502170000000000005e+00 7.453769999999999563e+00 4.533710000000000129e+00 5.228839999999999932e+00 7.589590000000000281e+00 6.266989999999999839e+00 5.196170000000000400e+00 2.390000000000000124e+00 3.664700000000000180e-01 5.747980000000000089e+00 7.968930000000000291e+00 3.301019999999999843e+00 7.745079999999999742e+00 6.655179999999999652e+00 7.502810000000000201e+00 4.197409999999999641e+00 1.311309999999999976e+00 6.068150000000000155e+00 1.247640000000000082e+00 2.893400000000000194e+00 1.828040000000000109e+00 2.972290000000000099e+00 6.614559999999999995e+00 7.179009999999999891e+00 1.288280000000000092e+00 5.535890000000000200e+00 4.674099999999999921e-01 2.158749999999999947e+00 8.271899999999999809e-01 3.207759999999999945e+00 1.439130000000000020e+00 6.233880000000000088e+00 2.883640000000000203e+00
8.199199999999999822e-01 3.690259999999999874e+00 4.706389999999999851e+00 5.334089999999999776e+00 5.077869999999999884e+00 6.889450000000000074e+00 3.187149999999999928e+00 4.521749999999999936e+00 5.049900000000000055e+00 6.831089999999999662e+00 2.645570000000000199e+00 6.880110000000000170e+00 2.173430000000000195e+00 1.840030000000000054e+00 5.327420000000000044e+00 4.433629999999999960e+00 7.654779999999999696e+00 2.741999999999999993e+00 4.302179999999999893e+00 2.806249999999999911e+00 5.757909999999999862e+00 4.735759999999999970e+00 5.859180000000000277e+00 5.319539999999999935e+00 4.884710000000000107e+00 5.913100000000000023e-01 5.148480000000000167e+00 4.973799999999999888e-01 2.121099999999999930e-01 7.366369999999999862e+00 4.625449999999999839e+00 5.242099999999999760e+00 3.249220000000000219e+00 3.179600000000000204e-01 6.192000000000000171e+00 3.494050000000000100e+00 2.277540000000000120e+00 7.667379999999999640e+00 1.801709999999999923e+00 7.475679999999999659e+00 4.214499999999999913e-01 5.397509999999999586e+00 5.815979999999999706e+00 2.609980000000000189e+00 3.754789999999999850e+00 4.001129999999999853e+00 1.966650000000000009e+00 1.587239999999999984e+00 3.408090000000000064e+00 3.410379999999999967e+00 7.705259999999999998e+00 5.759759999999999991e+00 4.086190000000000211e+00 1.059809999999999919e+00 2.885289999999999910e+00 8.863100000000000422e-01 7.388270000000000337e+00 7.495269999999999655e+00 2.045500000000000096e-01 1.835069999999999979e+00 3.002860000000000085e+00 5.567980000000000373e+00 7.417740000000000222e+00 9.260300000000000198e-01 5.113349999999999618e+00 6.156179999999999986e+00 2.520929999999999893e+00 7.228080000000000283e+00 3.938149999999999817e+00 2.413990000000000080e+00 4.234110000000000262e+00 2.341000000000000192e+00 5.463269999999999627e+00 6.413339999999999819e+00 1.060869999999999980e+00 1.218000000000000055e-01 1.974020000000000108e+00 3.308199999999999807e+00 6.583420000000000272e+00 4.723900000000000432e+00 4.159419999999999895e+00 6.471309999999999896e+00 2.086599999999999788e+00 1.312699999999999978e+00 8.033099999999999685e-01 2.616670000000000051e+00 1.550700000000000134e-01 5.427940000000000431e+00 7.397000000000000242e-01 7.286439999999999806e+00 7.866729999999999556e+00 4.088630000000000209e+00 2.320089999999999986e+00 6.349200000000000399e-01 5.963490000000000180e+00 6.545699999999999852e-01
4.406950000000000145e+00 3.076150000000000162e+00 4.394980000000000331e+00 6.582830000000000403e+00 5.685529999999999973e+00 5.126689999999999969e+00 1.302869999999999973e+00 8.316599999999999548e-01 2.143320000000000114e+00 7.876400000000000290e+00 6.697680000000000078e+00 6.771419999999999995e+00 2.774570000000000203e+00 4.253320000000000434e+00 1.217009999999999925e+00 1.361660000000000093e+00 4.830300000000000260e+00 7.272310000000000052e+00 4.525120000000000253e+00 6.424640000000000128e+00 4.033199999999999896e+00 1.052100000000000035e+00 7.792700000000000182e-01 5.819630000000000081e+00 3.212800000000000100e-01 3.131369999999999987e+00 5.755779999999999674e+00 5.679739999999999789e+00 3.998089999999999922e+00 5.934110000000000440e+00 1.558810000000000029e+00 6.958440000000000403e+00 6.466600000000000126e-01 4.778699999999999726e+00 3.301839999999999886e+00 2.467300000000000049e-01 6.742490000000000094e+00 1.972990000000000022e+00 1.730040000000000022e+00 2.421209999999999862e+00 6.704810000000000159e+00 3.204639999999999933e+00 3.863919999999999799e+00 7.214899999999999647e-01 4.619180000000000064e+00 1.302259999999999973e+00 2.413349999999999884e+00 3.779560000000000031e+00 6.831850000000000200e+00 7.233710000000000306e+00 1.192469999999999919e+00 3.317349999999999799e+00 4.363879999999999981e+00 3.595740000000000158e+00 5.402059999999999640e+00 5.091719999999999580e+00 1.994259999999999922e+00 1.552319999999999922e+00 1.821809999999999929e+00 5.170000000000000116e-03 7.849960000000000271e+00 4.202049999999999841e+00 1.278469999999999995e+00 4.726169999999999760e+00 1.310950000000000060e+00 7.308589999999999698e+00 3.016980000000000217e+00 6.925489999999999924e+00 6.586570000000000036e+00 7.704850000000000421e+00 6.697919999999999874e+00 3.021490000000000009e+00 5.990829999999999878e+00 5.308580000000000076e+00 7.710960000000000036e+00 6.867100000000000426e-01 4.783479999999999954e+00 4.084299999999999820e+00 5.498240000000000016e+00 7.279130000000000322e+00 6.418639999999999901e+00 4.207189999999999763e+00 2.122219999999999995e+00 2.297800000000000065e+00 6.836859999999999715e+00 3.792089999999999961e+00 3.409940000000000193e+00 3.883119999999999905e+00 7.469000000000000306e+00 1.748299999999999965e+00 2.740639999999999965e+00 2.592200000000000060e+00 5.929840000000000444e+00 7.281270000000000131e+00 1.302170000000000050e+00 6.912589999999999790e+00
2.283090000000000064e+00 5.875210000000000043e+00 1.916179999999999994e+00 7.965029999999999610e+00 2.990349999999999842e+00 3.647019999999999929e+00 3.007420000000000204e+00 4.439300000000000246e+00 1.065099999999999936e-01 5.953399999999999803e-01 1.137399999999999939e-01 5.994810000000000194e+00 5.250729999999999897e+00 2.287080000000000002e+00 7.682140000000000413e+00 2.196219999999999839e+00 6.399239999999999817e+00 7.227360000000000007e+00 6.755390000000000228e+00 4.492270000000000429e+00 1.062510000000000066e+00 3.638209999999999944e+00 4.647520000000000095e+00 5.079519999999999591e+00 1.726150000000000073e+00 2.327469999999999928e+00 4.773439999999999905e+00 3.218550000000000022e+00 1.458579999999999988e+00 6.138379999999999725e+00 8.129680000000000462e+00 5.323080000000000034e+00 3.489259999999999806e+00 6.970320000000000071e+00 1.564089999999999980e+00 5.859589999999999854e+00 2.181090000000000195e+00 4.236500000000000377e+00 3.378099999999999881e+00 7.170530000000000292e+00 6.924809999999999910e+00 1.991849999999999898e+00 2.823360000000000092e+00 7.189189999999999969e+00 4.783699999999999619e+00 1.340470000000000050e+00 5.229160000000000252e+00 5.472990000000000244e+00 4.176110000000000433e+00 7.555579999999999963e+00 2.302299999999999791e+00 6.047909999999999897e+00 4.185050000000000381e+00 4.618439999999999657e+00 4.607960000000000278e+00 1.921980000000000022e+00 4.101340000000000430e+00 8.440600000000000325e-01 1.672639999999999905e+00 9.626799999999999802e-01 7.835910000000000153e+00 3.115320000000000089e+00 7.326450000000000351e+00 6.445789999999999687e+00 1.203000000000000069e+00 3.539520000000000000e+00 5.294400000000000439e+00 6.830619999999999692e+00 4.342500000000000249e+00 2.817670000000000119e+00 7.860200000000000520e-01 5.757700000000000040e-01 5.671310000000000073e+00 -1.510000000000000057e-03 6.620519999999999960e+00 3.084130000000000038e+00 2.516640000000000210e+00 2.009409999999999918e+00 4.540470000000000006e+00 4.628849999999999909e+00 2.499400000000000066e+00 7.688209999999999766e+00 6.180830000000000268e+00 7.107090000000000352e+00 6.617090000000000138e+00 1.981000000000000094e+00 1.855900000000000105e+00 1.572719999999999896e+00 5.395999999999999686e-01 2.939579999999999860e+00 4.239899999999999558e+00 6.346140000000000114e+00 3.029700000000000171e-01 5.664179999999999993e+00 4.979560000000000208e+00 6.696909999999999918e+00
4.087060000000000137e+00 7.300480000000000302e+00 3.204130000000000145e+00 4.438199999999999923e-01 1.752650000000000041e+00 1.658099999999999907e+00 2.320819999999999883e+00 5.843119999999999870e+00 6.983880000000000088e+00 3.871299999999999741e-01 5.522409999999999819e+00 5.540540000000000020e+00 2.348399999999999821e+00 1.320780000000000065e+00 7.539740000000000109e+00 2.052070000000000061e+00 1.127699999999999952e-01 5.185039999999999871e+00 5.840119999999999756e+00 2.951350000000000140e+00 2.675839999999999996e+00 3.990639999999999965e+00 5.371330000000000382e+00 5.392529999999999824e+00 2.915599999999999858e-01 1.907960000000000100e+00 5.524540000000000006e+00 3.775349999999999984e+00 1.804540000000000033e+00 5.650649999999999729e+00 7.839649999999999785e+00 3.737800000000000011e+00 4.235310000000000130e+00 5.915379999999999860e+00 1.384570000000000078e+00 4.636199999999999655e+00 1.861320000000000086e+00 3.907579999999999831e+00 1.303420000000000023e+00 5.927489999999999704e+00 6.892350000000000421e+00 2.103689999999999838e+00 2.088779999999999859e+00 4.329649999999999999e+00 4.066779999999999617e+00 1.757619999999999960e+00 3.466730000000000089e+00 6.257690000000000197e+00 3.975940000000000030e+00 2.170630000000000059e+00 1.376800000000000024e+00 5.950890000000000235e+00 4.551650000000000418e+00 6.170099999999999696e+00 4.950759999999999827e+00 3.680210000000000203e+00 4.487689999999999735e+00 7.757909999999999862e+00 3.636300000000000088e-01 7.569309999999999761e+00 7.646010000000000417e+00 3.730329999999999924e+00 8.239000000000000490e-02 7.218999999999999861e-01 1.602099999999999913e-01 3.483490000000000197e+00 6.537650000000000183e+00 6.455540000000000056e+00 4.241010000000000169e+00 2.207279999999999909e+00 7.275590000000000224e+00 1.794079999999999897e+00 5.762279999999999625e+00 -7.438999999999999779e-02 6.319740000000000357e+00 3.443779999999999841e+00 3.832650000000000112e+00 6.839019999999999655e+00 3.429539999999999811e+00 5.165420000000000122e+00 2.106819999999999915e+00 1.922999999999999987e-01 5.883119999999999905e+00 1.386060000000000070e+00 5.809770000000000323e+00 2.403210000000000068e+00 7.014359999999999928e+00 2.317959999999999798e+00 1.889029999999999987e+00 3.413559999999999928e+00 4.493999999999999773e+00 6.154460000000000264e+00 2.030299999999999883e-01 6.043429999999999858e+00 4.546000000000000263e+00 1.407729999999999926e+00
1.887040000000000051e+00 1.837290000000000090e+00 3.751030000000000086e+00 5.204690000000000261e+00 5.349639999999999951e+00 3.021520000000000206e+00 4.812289999999999957e+00 6.314770000000000216e+00 4.995059999999999611e+00 4.003379999999999939e+00 3.366099999999999870e+00 3.393170000000000019e+00 4.002019999999999911e+00 1.996259999999999923e+00 5.901340000000000252e+00 7.369369999999999976e+00 7.420729999999999826e+00 4.328050000000000175e+00 6.924900000000000500e-01 2.407420000000000115e+00 5.409069999999999823e+00 3.555410000000000181e+00 6.571950000000000180e+00 1.600510000000000099e+00 3.818119999999999958e+00 4.050989999999999647e+00 5.643099999999999783e-01 1.895199999999999996e+00 5.703719999999999679e+00 6.629999999999999609e-03 3.608470000000000066e+00 1.287800000000000056e+00 1.390139999999999931e+00 5.921319999999999695e+00 3.276269999999999794e+00 1.631140000000000034e+00 5.810620000000000118e+00 5.726210000000000022e+00 3.686499999999999777e-01 5.975369999999999848e+00 1.885270000000000001e+00 3.786080000000000112e+00 6.809820000000000206e+00 1.809050000000000047e+00 7.196559999999999846e+00 1.671589999999999909e+00 7.384000000000000341e+00 5.533680000000000376e+00 5.673479999999999634e+00 7.230310000000000237e+00 1.976809999999999956e+00 7.561930000000000263e+00 4.017839999999999634e+00 3.422890000000000210e+00 7.978999999999999981e-02 1.607720000000000038e+00 2.079299999999999926e+00 2.965559999999999974e+00 5.367720000000000269e+00 3.434759999999999813e+00 1.841630000000000100e+00 3.553819999999999979e+00 1.928320000000000034e+00 5.900210000000000399e+00 2.533599999999999741e-01 6.549210000000000420e+00 3.750630000000000130e+00 5.173100000000000476e-01 3.832190000000000207e+00 7.644280000000000186e+00 6.692700000000000315e+00 5.179599999999999760e-01 7.434739999999999682e+00 6.058639999999999581e+00 2.295279999999999987e+00 1.588500000000000023e+00 7.135440000000000005e+00 2.689579999999999860e+00 5.553270000000000373e+00 3.557500000000000107e+00 5.869539999999999758e+00 1.697780000000000067e+00 1.885909999999999975e+00 2.710000000000000169e-03 2.476080000000000059e+00 3.802340000000000053e+00 5.680570000000000341e+00 4.165599999999999858e-01 3.887509999999999799e+00 1.189999999999999947e-01 3.253219999999999779e+00 1.342399999999999982e-01 6.949230000000000018e+00 7.644800000000000040e+00 5.458759999999999835e+00 5.827300000000000146e+00
5.524180000000000312e+00 2.440370000000000150e+00 3.754890000000000061e+00 3.357800000000000118e+00 6.169909999999999783e+00 5.820960000000000356e+00 5.519100000000000117e-01 3.781480000000000175e+00 7.530470000000000219e+00 3.791009999999999991e+00 4.005779999999999674e+00 3.304580000000000073e+00 7.074989999999999668e+00 1.099500000000000061e-01 1.193700000000000039e-01 2.855989999999999807e+00 1.691079999999999917e+00 2.169760000000000133e+00 2.198010000000000019e+00 2.836450000000000138e+00 5.413240000000000052e+00 1.627539999999999987e+00 7.292550000000000310e+00 6.808139999999999858e+00 2.275290000000000035e+00 1.953869999999999996e+00 7.654090000000000060e+00 3.990439999999999987e+00 6.381669999999999732e+00 2.721229999999999816e+00 6.542900000000000382e+00 5.565290000000000070e+00 4.419030000000000236e+00 4.566790000000000127e+00 4.252550000000000274e+00 7.621380000000000265e+00 7.711859999999999715e+00 3.393829999999999902e+00 4.268449999999999633e+00 1.852530000000000010e+00 5.512229999999999741e+00 3.780499999999999972e+00 1.558969999999999967e+00 7.591759999999999842e+00 1.448380000000000001e+00 6.791000000000000369e-01 5.613459999999999894e+00 5.845720000000000027e+00 6.758160000000000167e+00 7.686749999999999972e+00 3.194199999999999928e+00 5.839570000000000149e+00 4.024980000000000224e+00 1.878719999999999946e+00 5.852389999999999759e+00 7.584130000000000038e+00 5.924649999999999750e+00 1.976849999999999996e+00 3.959769999999999790e+00 1.644679999999999920e+00 6.092400000000000038e-01 1.204059999999999908e+00 5.278260000000000396e+00 3.852300000000000058e+00 2.736899999999999888e-01 4.190750000000000419e+00 4.405459999999999710e+00 7.376949999999999896e+00 4.727399999999999936e-01 6.179120000000000168e+00 2.496119999999999894e+00 7.162279999999999980e+00 5.495099999999999874e+00 9.296400000000000219e-01 1.904819999999999958e+00 6.679909999999999570e+00 5.350500000000000256e+00 7.253409999999999691e+00 4.296669999999999767e+00 1.486310000000000020e+00 6.215799999999999770e+00 7.634450000000000180e+00 2.353460000000000107e+00 1.627599999999999936e+00 4.411579999999999835e+00 4.107949999999999768e+00 5.440419999999999590e+00 1.803609999999999935e+00 5.774930000000000341e+00 2.623500000000000276e-01 1.249649999999999928e+00 1.384090000000000042e+00 3.545809999999999906e+00 -5.396000000000000102e-02 5.781970000000000276e+00 1.909620000000000095e+00
6.537149999999999572e+00 9.043200000000000127e-01 1.392099999999999893e+00 4.414200000000000124e+00 4.282659999999999911e+00 3.404790000000000205e+00 1.911359999999999948e+00 3.966000000000000192e+00 7.651970000000000383e+00 7.903190000000000381e+00 7.168660000000000032e+00 4.098499999999999921e-01 1.457019999999999982e+00 4.336409999999999876e+00 3.102640000000000065e+00 3.157820000000000071e+00 3.589510000000000201e+00 1.797400000000000109e+00 3.206420000000000048e+00 6.347199999999999953e+00 3.565929999999999822e+00 2.171390000000000153e+00 6.041319999999999801e+00 4.646100000000000230e-01 1.679499999999999882e-01 2.677119999999999944e+00 5.134210000000000385e+00 6.592929999999999957e+00 3.875049999999999883e+00 6.921499999999999986e+00 1.864000000000000101e-01 2.577929999999999833e+00 2.598959999999999937e+00 4.979580000000000339e+00 2.392830000000000013e+00 2.738900000000000223e-01 6.243669999999999831e+00 6.938979999999999926e+00 3.185150000000000148e+00 1.240320000000000089e+00 7.437000000000000555e-02 2.730290000000000106e+00 4.061440000000000161e+00 6.281760000000000232e+00 5.756850000000000023e+00 4.805609999999999715e+00 9.227699999999999791e-01 3.560459999999999958e+00 8.518000000000000571e-02 2.051390000000000047e+00 7.621640000000000192e+00 2.309050000000000047e+00 4.859919999999999796e+00 5.150079999999999991e+00 4.449729999999999741e+00 6.386429999999999829e+00 1.436649999999999983e+00 2.467600000000000016e+00 1.022049999999999903e+00 7.655699999999999728e-01 7.375429999999999708e+00 4.599179999999999602e+00 1.126679999999999904e+00 5.896349999999999980e+00 2.166749999999999954e+00 5.438659999999999606e+00 4.206299999999999706e+00 4.557809999999999917e+00 7.713650000000000340e+00 2.126230000000000064e+00 4.342400000000000149e-01 5.244970000000000354e+00 3.605630000000000113e+00 2.469559999999999977e+00 6.191099999999999604e+00 6.899999999999999667e-04 3.989999999999999623e-03 6.739869999999999806e+00 6.380910000000000082e+00 6.460790000000000255e+00 5.300709999999999589e+00 2.578939999999999788e+00 2.270989999999999842e+00 3.693789999999999907e+00 6.530630000000000379e+00 4.022310000000000052e+00 3.951849999999999863e+00 4.261989999999999945e+00 4.272299999999999986e-01 6.729790000000000383e+00 7.366899999999999560e-01 6.657939999999999969e+00 4.399239999999999817e+00 7.593989999999999796e+00 8.982200000000000184e-01 4.163059999999999761e+00
4.515399999999999636e+00 9.784599999999999964e-01 2.857429999999999914e+00 8.133539999999999992e+00 1.705000000000000127e-01 2.275749999999999940e+00 4.387010000000000076e+00 5.893169999999999575e+00 7.590200000000000280e+00 6.960639999999999716e+00 4.068500000000000227e+00 3.764710000000000001e+00 1.588449999999999918e+00 2.248149999999999871e+00 6.606600000000000250e-01 1.948809999999999931e+00 6.610829999999999984e+00 7.434140000000000192e+00 5.967340000000000089e+00 2.520169999999999799e+00 2.323580000000000201e+00 5.981259999999999799e+00 4.998210000000000264e+00 6.009540000000000326e+00 8.387999999999999901e-01 1.690010000000000012e+00 5.969509999999999650e+00 2.639749999999999819e+00 1.351820000000000022e+00 5.700499999999999901e+00 1.352680000000000105e+00 5.369139999999999802e+00 3.299809999999999910e+00 7.080449999999999910e+00 1.257430000000000048e+00 4.192359999999999864e+00 2.565830000000000055e+00 5.370120000000000005e+00 1.150130000000000097e+00 5.960880000000000400e+00 7.642439999999999678e+00 1.269649999999999945e+00 3.091400000000000148e+00 6.412449999999999761e+00 4.928729999999999833e+00 2.026569999999999983e+00 4.168359999999999843e+00 6.413979999999999571e+00 3.304429999999999978e+00 3.286200000000000010e+00 2.215539999999999843e+00 5.577219999999999622e+00 2.622009999999999952e+00 6.602909999999999613e+00 3.905310000000000059e+00 3.923119999999999941e+00 4.343140000000000001e+00 7.755609999999999893e+00 6.295589999999999797e+00 6.715530000000000221e+00 3.009499999999999953e-01 4.307839999999999669e+00 3.447000000000000064e-01 8.701699999999999990e-01 7.232359999999999900e+00 4.565629999999999633e+00 6.465900000000000425e+00 6.545840000000000103e+00 4.259420000000000428e+00 2.900469999999999882e+00 7.376599999999999824e+00 2.168489999999999807e+00 4.673110000000000319e+00 5.601399999999999713e-01 5.831380000000000230e+00 3.596519999999999939e+00 3.270929999999999893e+00 7.511050000000000004e+00 4.699270000000000280e+00 5.368599999999999817e+00 2.757579999999999920e+00 7.301980000000000359e+00 5.846009999999999707e+00 1.635680000000000023e+00 7.551210000000000200e+00 1.871439999999999992e+00 7.887520000000000309e+00 5.435299999999999576e-01 2.834839999999999804e+00 2.807030000000000136e+00 4.238139999999999574e+00 1.234369999999999967e+00 2.606200000000000183e-01 5.836350000000000371e+00 4.416350000000000442e+00 7.862700000000000244e-01