-1.018187182300000018e+02
-1.019127466000000055e+02
-9.906131095000000641e+01
-9.797683677000000557e+01
-9.963923733000000027e+01
-1.005627642000000037e+02
-1.012985045199999945e+02
-1.026206084100000027e+02
-1.034152891699999941e+02
-1.030617038200000053e+02
-9.993860700999999835e+01
-1.017893373400000030e+02
-1.038222178299999996e+02
-9.739680522000000451e+01
-9.877247726999999600e+01
-9.877570342999999298e+01
