-6.416819999999999746e-01 -6.689129999999999798e-01 1.261401999999999912e+00 7.503722999999999921e+00 4.638295000000000279e+00 4.327798999999999729e+00 -5.112830000000000430e-01 5.717799999999999966e-02 -5.175589999999999913e-01 -1.271385999999999905e+00 -9.900000000000000466e-02 6.323079999999999812e-01 1.291957999999999940e+00 6.658899999999999819e-01 -6.580179999999999918e-01 3.105060000000000042e-01 -1.045131999999999950e+00 5.641499999999999987e-02 9.225300000000000167e-02 -4.084729999999999750e-01 -1.936269999999999936e-01 -5.539439999999999920e-01 -3.649089999999999834e-01 -5.231529999999999792e-01 -1.350511000000000017e+00 4.821940000000000115e-01 -1.456290000000000084e-01 -2.217820000000000069e-01 -6.086610000000000076e-01 4.294819999999999749e-01 -8.073199999999999821e-02 -9.046570000000000444e-01 4.241679999999999895e-01 -7.204439999999999733e-01 -1.402911999999999937e+00 -7.287339999999999929e-01 1.318057999999999952e+00 -2.487749999999999961e-01 -7.874020000000000463e-01 -6.779230000000000533e-01 -1.762800000000000131e-02 -1.052130999999999927e+00 -5.525100000000000150e-02 8.041840000000000099e-01 -1.861280000000000046e+00 -4.013309999999999933e-01 1.173519999999999980e-01 1.475149999999999961e+00 1.680079999999999907e-01 1.156757000000000035e+00 2.814450000000000007e-01 -8.427794000000000452e+00 -4.290765000000000384e+00 -2.898359000000000130e+00 1.547331000000000012e+00 8.792010000000000103e-01 4.411809999999999898e-01 3.531070000000000042e-01 -4.117000000000000104e-01 -1.282858999999999972e+00 -1.065139999999999976e-01 -9.970219999999999638e-01 -7.976779999999999982e-01 2.013280000000000070e-01 6.136519999999999753e-01 6.891810000000000436e-01 -5.001400000000000290e-01 1.202679999999999999e-01 7.478749999999999565e-01 2.036669999999999869e-01 -4.289000000000000278e-03 5.554580000000000073e-01 -1.132840999999999987e+00 -3.961489999999999734e-01 -8.468120000000000092e-01 -5.839860000000000051e-01 4.925359999999999738e-01 4.213660000000000183e-01 6.955480000000000551e-01 1.677340999999999971e+00 3.445869999999999767e-01 1.552859999999999907e+00 -1.044599999999999973e-01 1.276032000000000055e+00 1.647919999999999940e-01 2.947400000000000020e-02 -9.086530000000000440e-01 -1.311759999999999871e-01 -6.488800000000000123e-02 -1.369279999999999942e-01 3.381600000000000161e-01 4.697749999999999981e-01 -1.373499999999999999e-01 1.627418999999999949e+00 -1.657639999999999947e-01 1.123249999999999943e-01
-1.097358000000000056e+00 -5.651620000000000532e-01 2.345059999999999922e-01 -2.119479999999999809e+00 9.537189999999999834e-01 -2.351949999999999874e-01 7.384439999999999893e-01 2.935639999999999916e-01 -5.931669999999999998e-01 -9.502890000000000503e-01 -1.410270000000000135e-01 -3.855339999999999878e-01 3.842030000000000167e-01 2.006365000000000176e+00 -4.214689999999999825e-01 8.490109999999999602e-01 -3.939770000000000216e-01 1.901270000000000016e+00 8.838510000000000533e-01 -1.525706999999999924e+00 -3.671459999999999724e-01 2.185159999999999880e-01 6.036600000000000299e-02 -3.410679999999999823e-01 2.042180000000000106e-01 -2.657599999999999962e-01 -1.525940000000000074e-01 -9.214879999999999738e-01 5.770929999999999671e-01 -5.092489999999999517e-01 3.891089999999999827e-01 5.835160000000000347e-01 6.353199999999999958e-01 1.465140000000000053e-01 1.044520000000000032e-01 1.630919999999999870e-01 -4.707250000000000045e-01 -2.542519999999999780e-01 3.448579999999999979e-01 -2.223789999999999933e-01 -2.226730000000000098e-01 4.950229999999999908e-01 -2.930719999999999992e-01 1.089645999999999892e+00 1.642939999999999956e-01 1.288060000000000038e-01 -2.160196000000000005e+00 7.847199999999999731e-01 -8.379599999999999549e-02 -3.784699999999999731e-01 -4.258689999999999976e-01 5.842049999999999743e-01 -1.897590000000000110e-01 -8.057050000000000045e-01 -1.757809999999999928e-01 -1.331177000000000055e+00 3.392400000000000276e-02 -4.758319999999999772e-01 8.759120000000000239e-01 -5.897369999999999557e-01 -4.244020000000000015e-01 1.323177000000000048e+00 5.255729999999999569e-01 -2.844119999999999981e-01 1.518299999999999927e-01 3.812299999999999717e-02 -9.417100000000000470e-01 1.499679999999999902e-01 7.395350000000000534e-01 7.349010000000000264e-01 1.490035999999999916e+00 -8.691259999999999541e-01 6.534560000000000368e-01 -8.569352000000000302e+00 5.910874999999999879e+00 1.314235000000000042e+00 -7.756950000000000234e-01 4.754380000000000273e-01 8.666600000000000692e-02 1.176552999999999960e+00 1.077482999999999969e+00 2.752129999999999854e-01 7.473202999999999818e+00 -6.903256999999999977e+00 2.405900000000000052e-02 -5.337229999999999475e-01 -1.911572000000000049e+00 2.284480000000000122e-01 -2.077970000000000095e-01 9.297500000000000209e-02 -7.378099999999999936e-02 9.082199999999999995e-02 3.015889999999999960e-01 6.906529999999999614e-01 -8.854950000000000321e-01 5.920900000000000052e-01
-1.444855000000000000e+00 2.019016999999999840e+00 -1.061684999999999990e+00 2.519810000000000105e-01 1.699124999999999996e+00 -9.830849999999999866e-01 -4.967250000000000276e-01 -1.013107999999999898e+00 8.854090000000000016e-01 -8.170000000000000179e-04 -4.884740000000000193e-01 -1.568923000000000068e+00 3.529100000000000292e-02 -2.120120000000000060e-01 2.201980000000000048e-01 -3.642509999999999915e-01 7.490919999999999801e-01 -3.395100000000000201e-02 -1.780699999999999991e-02 -9.172099999999999698e-02 3.609240000000000226e-01 -2.455999999999999850e-02 9.391929999999999445e-01 -3.711030000000000162e-01 2.698779000000000039e+00 1.062749999999999945e-01 1.287457000000000074e+00 9.390039999999999498e-01 -3.942910000000000026e-01 1.170163999999999982e+00 -1.445859000000000005e+00 9.994859999999999856e-01 2.642059999999999964e-01 -8.568000000000000616e-02 4.595339999999999980e-01 -1.338788000000000089e+00 5.433010000000000339e-01 8.003599999999999604e-01 1.836875000000000036e+00 -3.000479999999999814e-01 1.191490000000000049e-01 7.788779999999999593e-01 -8.070475000000000065e+00 -1.458301999999999987e+00 -5.941267999999999994e+00 2.011801000000000172e+00 -1.077749999999999958e-01 -2.075026999999999955e+00 -1.385079999999999922e-01 4.808939999999999881e-01 2.791449999999999765e-01 9.599889999999999812e-01 -6.042969999999999731e-01 -7.345779999999999532e-01 -9.535460000000000047e-01 -2.172753999999999852e+00 -1.142255000000000020e+00 -1.003449999999999953e+00 -9.586400000000000476e-02 -4.673729999999999829e-01 1.093039999999999984e-01 -8.784459999999999491e-01 -1.576035999999999992e+00 1.056915999999999967e+00 1.522880000000000067e-01 -4.192900000000000099e-02 9.812589999999999923e-01 -1.633447000000000093e+00 -5.889630000000000143e-01 -1.733930999999999889e+00 -5.535459999999999825e-01 -5.429300000000000237e-01 2.282710000000000017e-01 -1.745913999999999966e+00 -3.922140000000000071e-01 3.275890000000000191e-01 -1.531635000000000080e+00 2.230421999999999905e+00 1.695119999999999960e-01 1.913829999999999976e-01 2.856710000000000083e-01 1.659170000000000034e+00 -1.477719999999999922e+00 2.397423999999999999e+00 -2.217236999999999902e+00 1.981157000000000057e+00 9.286510000000000042e-01 -9.993189999999999573e-01 7.996879999999999544e-01 6.140820000000000167e-01 7.220763999999999960e+00 1.964390000000000081e+00 6.298021000000000313e+00 1.041350000000000053e-01 9.982729999999999659e-01 -9.774190000000000378e-01
-1.310467000000000048e+00 -6.616009999999999946e-01 5.652700000000000502e-01 1.198291999999999913e+00 -2.630503000000000036e+00 5.394980000000000331e-01 2.284879999999999967e-01 -3.844480000000000119e-01 -5.761169999999999902e-01 1.148416000000000103e+00 -5.303060000000000551e-01 6.039870000000000516e-01 8.366099999999999925e-02 4.701199999999999823e-02 7.481470000000000065e-01 -1.902290000000000036e+00 2.865434000000000037e+00 -7.402919999999999501e-01 8.097362000000000393e+00 2.861704000000000025e+00 -3.888637000000000121e+00 6.222520000000000273e-01 2.273599999999999927e-02 5.549199999999999688e-01 5.756259999999999710e-01 4.897020000000000262e-01 7.946429999999999882e-01 2.609420000000000073e-01 -5.307819999999999760e-01 -7.206519999999999593e-01 1.146158999999999928e+00 -2.909742000000000051e+00 -2.724775999999999865e+00 -2.682970000000000077e-01 2.436200000000000171e-02 -5.030219999999999692e-01 3.911879999999999802e-01 -2.599866000000000010e+00 -8.384409999999999918e-01 -3.530000000000000152e-04 -2.750199999999999867e-02 -3.894779999999999909e-01 7.769779999999999465e-01 7.192539999999999489e-01 1.325349000000000110e+00 -2.191422000000000203e+00 2.898172999999999888e+00 9.575399999999999467e-01 -8.952090000000000325e-01 3.307450000000000112e-01 2.186230000000000118e-01 -1.081499999999999906e+00 -1.456840000000000079e-01 -2.923490000000000255e-01 -3.798670000000000102e-01 -2.407199999999999895e-01 6.856199999999999795e-02 -1.125339999999999951e-01 -8.139650000000000496e-01 8.519229999999999858e-01 -9.216364999999999696e+00 -3.155466000000000104e+00 4.737569999999999837e-01 -3.275879999999999903e-01 -1.598819999999999963e-01 2.269130000000000036e-01 -1.378419999999999923e-01 2.302524000000000015e+00 2.478584000000000120e+00 1.054680000000000062e-01 6.922270000000000367e-01 -3.255379999999999940e-01 8.390619999999999745e-01 -2.404424999999999812e+00 1.147332999999999936e+00 -1.095339000000000063e+00 1.642530000000000101e-01 -1.817444000000000059e+00 -5.181210000000000537e-01 1.102376999999999940e+00 -3.233739999999999948e-01 1.568052000000000001e+00 8.187710000000000266e-01 2.156127000000000127e+00 7.490459999999999896e-01 7.211229999999999585e-01 -3.640260000000000162e-01 -5.411899999999999489e-01 -5.237450000000000161e-01 1.359296999999999978e+00 7.461510000000000087e-01 8.960789999999999589e-01 -1.589889999999999914e-01 1.441241999999999912e+00 7.621620000000000061e-01 -1.407340000000000035e+00
-1.969450000000000089e-01 -1.715681999999999929e+00 -2.527925000000000200e+00 2.978041000000000160e+00 -3.794290000000000163e+00 6.058882999999999797e+00 -3.926185999999999954e+00 -8.258879999999999555e-01 -9.360180000000000167e-01 -3.541819999999999968e-01 5.620260000000000256e-01 -1.737444999999999906e+00 -5.644130000000000535e-01 -4.683039999999999980e-01 -3.696010000000000129e-01 1.222909000000000024e+00 5.323520000000000474e-01 4.518679999999999919e-01 2.126593999999999873e+00 -1.381920000000000037e+00 -1.265100000000000113e-01 -5.998750000000000471e-01 7.092531000000000141e+00 -5.276785000000000281e+00 -5.763740000000000530e-01 -4.643349999999999977e-01 -1.577731999999999912e+00 5.616590000000000193e-01 1.157807999999999948e+00 2.909939999999999749e-01 -1.076545000000000085e+00 -4.428889999999999771e-01 -2.971696000000000115e+00 6.521230000000000082e-01 4.829019999999999979e-01 -1.980200000000000016e-02 -1.034941000000000111e+00 2.267899999999999916e-01 -1.782218000000000080e+00 -6.102549999999999919e-01 2.968199999999999728e-01 -1.560221000000000080e+00 -7.041610000000000369e-01 -9.286950000000000482e-01 -3.678690000000000015e-01 9.679699999999999416e-02 -3.215790000000000037e-01 6.461329999999999574e-01 -6.714759999999999618e-01 -3.164730000000000043e-01 6.670559999999999823e-01 -8.832269999999999843e-01 9.295080000000000009e-01 1.060194000000000081e+00 4.888540000000000108e-01 -2.497600000000000167e-02 1.920779999999999987e-01 2.844960000000000266e-01 -1.831217000000000095e+00 3.956669999999999909e-01 -3.399309999999999832e-01 1.868730000000000002e+00 2.386919999999999875e-01 -1.438180000000000014e-01 2.839948000000000139e+00 2.486550999999999956e+00 -2.212389999999999912e-01 -4.575830000000000175e-01 2.458088000000000051e+00 -5.543000000000000010e-02 -5.334000000000000200e-03 -1.654509999999999870e-01 3.687989999999999879e-01 4.604440000000000199e-01 -3.166410000000000058e-01 6.415170000000000039e-01 -1.235238999999999976e+00 1.764259999999999995e-01 7.943350000000000133e-01 3.506009999999999960e-01 1.702039000000000080e+00 2.180549999999999988e-01 -1.115164999999999962e+00 7.065439999999999499e-01 8.435409999999999853e-01 1.994110000000000049e-01 5.049770000000000092e-01 3.613720000000000265e-01 -2.310339999999999894e-01 1.542383999999999977e+00 2.973669999999999924e-01 7.100000000000000408e-03 -1.006482000000000099e+00 2.253700000000000148e-02 -1.446366999999999958e+00 1.163821999999999912e+00
4.854885999999999591e+00 -5.684071000000000318e+00 2.670866000000000184e+00 1.348573000000000022e+00 1.531041000000000096e+00 -1.808986999999999901e+00 -3.224890000000000256e-01 -4.260650000000000270e-01 2.311159999999999881e-01 1.924980000000000024e-01 3.577529999999999877e-01 3.725599999999999745e-02 -1.684609999999999996e-01 4.460599999999999982e-02 2.431790000000000063e-01 3.730550000000000255e-01 -4.349859999999999838e-01 -6.720829999999999860e-01 1.098033999999999955e+00 -3.182050000000000156e-01 4.231909999999999838e-01 3.145086000000000048e+00 -1.422781000000000073e+00 -2.586794999999999956e+00 -6.424290000000000278e-01 5.953070000000000306e-01 6.941110000000000335e-01 -6.084929999999999506e-01 -2.919585000000000097e+00 9.895749999999999824e-01 2.136599999999999888e-01 -4.952019999999999755e-01 4.010690000000000088e-01 1.859149999999999969e-01 1.365221999999999936e+00 6.520369999999999777e-01 1.080419999999999991e-01 -3.470849999999999769e-01 -4.090500000000000247e-01 -2.158329000000000164e+00 -4.388719999999999843e-01 7.473790000000000155e-01 -4.984700000000000242e-01 1.780899999999999844e-02 2.408430000000000015e-01 5.788170000000000259e-01 4.727109999999999923e-01 -1.915749999999999953e-01 -1.303700999999999999e+00 1.097668000000000088e+00 -2.562027000000000054e+00 -5.097076000000000384e+00 5.344530999999999921e+00 -3.421729000000000021e+00 -6.878530000000000477e-01 1.784020000000000050e-01 9.883619999999999628e-01 3.047400000000000109e-01 7.939389999999999503e-01 5.656440000000000357e-01 2.106439999999999979e-01 1.829530000000000045e-01 -5.644099999999999812e-02 -8.046330000000000426e-01 -9.155830000000000357e-01 -2.517400000000000193e-01 -2.323700000000000071e-02 2.363039999999999863e-01 -3.119069999999999898e-01 9.809909999999999464e-01 -3.564970000000000083e-01 1.994494999999999907e+00 7.829139999999999988e-01 9.007509999999999684e-01 2.502199999999999910e-02 3.087756999999999863e+00 1.347528999999999977e+00 5.577109999999999568e-01 -2.260469999999999979e-01 -5.398300000000000320e-02 -4.218259999999999788e-01 -4.330570000000000253e-01 -4.101460000000000106e-01 -6.054619999999999447e-01 -2.174082999999999988e+00 -1.558380000000000098e+00 1.524139999999999939e-01 1.254801000000000055e+00 6.620719999999999938e-01 -1.219200999999999979e+00 1.579089999999999938e-01 3.263130000000000197e-01 4.300829999999999931e-01 -3.729963999999999835e+00 3.265290000000000137e-01 2.474469000000000030e+00
-2.054509999999999947e-01 1.636104000000000003e+00 -7.610240000000000338e-01 -6.191499999999999782e-02 8.182699999999999696e-02 -4.424509999999999832e-01 -5.488099999999999923e-02 -1.589633000000000074e+00 -3.750160000000000160e-01 1.082513000000000059e+00 6.943359999999999532e-01 -7.729740000000000499e-01 -1.620389999999999886e-01 3.440579999999999750e-01 9.386200000000000099e-02 2.777029999999999776e-01 1.906239999999999879e-01 6.782240000000000490e-01 -6.417680000000000051e-01 8.801600000000000534e-01 1.114780000000000104e+00 1.092929000000000039e+00 3.188099999999999962e-02 8.266489999999999672e-01 -2.258960000000000135e-01 -3.920900000000000080e-02 -1.006679999999999936e-01 1.239705000000000057e+00 -4.499560000000000226e-01 1.430876999999999954e+00 -4.158729999999999927e-01 6.802110000000000101e-01 -4.274279999999999746e-01 -3.590000000000000135e-02 1.840586999999999973e+00 -1.075598999999999972e+00 -5.725190000000000001e-01 -9.837939999999999463e-01 2.131830000000000114e-01 -3.420239999999999947e-01 3.403769999999999851e-01 -3.956339999999999857e-01 3.413769999999999860e-01 -3.676099999999999923e-01 -5.791199999999999820e-02 -8.025139999999999496e-01 -6.705109999999999681e-01 -8.509099999999999997e-02 5.779969999999999830e-01 3.688279999999999892e-01 1.380797000000000052e+00 1.777380000000000071e-01 -4.440830000000000055e-01 -1.172689000000000092e+00 -3.304359999999999964e+00 1.270933000000000090e+00 9.179890000000000549e-01 -1.665350000000000108e+00 8.508790000000000520e-01 -1.147159999999999985e-01 6.056589999999999474e-01 -9.415900000000000658e-02 -5.932840000000000336e-01 1.971049000000000051e+00 -5.525050000000000239e+00 6.551243999999999623e+00 3.110160000000000147e-01 -6.434250000000000247e-01 8.554399999999999504e-02 1.058634999999999993e+00 -8.031770000000000298e-01 -1.410504999999999898e+00 -1.408179000000000070e+00 -1.176396999999999915e+00 7.820019999999999749e-01 4.381309999999999927e-01 4.620179999999999843e-01 3.531810000000000227e-01 -4.531999999999999570e-03 1.495160000000000100e-01 3.524700000000000055e-02 -8.087500000000000244e-02 -9.682070000000000398e-01 9.317239999999999966e-01 5.006969999999999477e-01 3.633300000000000196e+00 -8.319986000000000104e+00 -3.325099999999999723e-01 4.783699999999999758e-02 -7.997799999999999354e-02 6.945999999999999952e-01 6.424029999999999463e-01 3.180919999999999859e-01 -5.316300000000000192e-02 -3.906669999999999865e-01 4.715610000000000079e-01
-8.447930000000000161e-01 6.773219999999999796e-01 1.692361000000000004e+00 -8.627799999999999359e-02 1.230990999999999946e+00 1.158903999999999934e+00 -1.044837000000000016e+00 1.174792000000000058e+00 1.371887000000000079e+00 4.926630000000000176e-01 1.184172999999999920e+00 1.148374000000000006e+00 -5.250320000000000542e-01 -8.337400000000000366e-02 -2.789099999999999913e-01 1.200890999999999931e+00 -4.744220000000000104e-01 1.571668999999999983e+00 1.053179000000000087e+00 -3.462244999999999795e+00 2.238090000000000079e-01 -9.955319999999999725e-01 4.141747999999999763e+00 -1.351850999999999914e+00 -4.350180000000000158e-01 -1.851074000000000108e+00 5.624080000000000190e-01 -3.532799999999999829e-02 -6.148770000000000069e-01 -4.416950000000000043e-01 -2.587482000000000060e+00 -7.082969999999999544e-01 -1.488167000000000018e+00 3.096169999999999756e-01 6.754879999999999773e-01 -1.568897999999999904e+00 -9.409920000000000506e-01 -1.345096000000000069e+00 -1.835579999999999989e-01 1.157532000000000005e+00 6.033539999999999459e-01 -1.822602000000000055e+00 1.938674999999999926e+00 7.884330000000000505e-01 -8.380290000000000239e-01 -8.592876999999999654e+00 -1.604106999999999950e+00 -3.299119000000000135e+00 -1.339629999999999987e-01 7.906599999999999739e-02 8.056900000000000173e-02 2.335691000000000184e+00 1.511236999999999941e+00 1.902384999999999993e+00 -1.001095999999999986e+00 -1.723551999999999973e+00 -1.191410000000000080e+00 -2.413799999999999973e-02 -8.621419999999999639e-01 -1.014710000000000001e+00 2.711810000000000054e-01 -4.877299999999999969e-01 -4.878339999999999899e-01 -3.066224000000000061e+00 -5.491380000000000150e-01 2.966699999999999893e-02 -3.976609999999999867e-01 -8.436230000000000118e-01 1.392799999999999941e-02 8.670069999999999721e-01 -1.863950000000000051e-01 -1.890665999999999958e+00 -3.981689999999999952e-01 -6.922580000000000400e-01 9.534010000000000540e-01 1.028531500000000065e+01 2.678639999999999910e-01 5.103551000000000393e+00 1.712871999999999950e+00 4.752730000000000010e-01 1.014661999999999953e+00 6.060959999999999681e-01 1.326700000000000101e-01 5.747499999999999831e-02 -1.923380000000000090e-01 -1.053822999999999954e+00 4.732000000000000095e-01 4.289910000000000112e-01 7.979829999999999979e-01 -3.866900000000000198e-02 -1.551970000000000016e-01 1.863209999999999866e-01 1.113350000000000034e-01 -1.202755000000000019e+00 2.615437000000000012e+00 -1.573466999999999949e+00
8.471429999999999794e-01 4.498639999999999861e-01 -1.511098999999999970e+00 1.202768000000000059e+00 -1.875699999999999923e+00 -4.239769999999999928e-01 3.023330000000000184e-01 -9.650349999999999762e-01 2.005116999999999816e+00 1.799500000000000058e-02 -1.865963000000000038e+00 2.919410000000000061e-01 -4.162359999999999949e-01 -5.591080000000000494e-01 -4.821679999999999855e-01 -1.658798999999999912e+00 -1.004619999999999957e-01 -5.211519999999999486e-01 -2.397634000000000043e+00 4.022990000000000177e-01 1.238995999999999986e+00 -3.359320000000000084e-01 -2.106923000000000101e+00 -1.158925999999999901e+00 -6.342000000000000415e-03 -2.121069999999999900e-01 -3.652299999999999991e-01 2.239034000000000191e+00 -1.728213999999999917e+00 -6.433649999999999647e-01 3.737249999999999739e-01 2.748794999999999877e+00 3.878670000000000173e-01 -2.802339999999999831e-01 2.530439999999999912e-01 -2.479969999999999952e-01 -3.115901000000000032e+00 -3.658779000000000003e+00 -1.455877000000000088e+00 -6.783010000000000428e-01 5.689849999999999630e-01 6.448530000000000095e-01 2.725833000000000172e+00 5.284324999999999939e+00 2.986115999999999993e+00 6.907010000000000094e-01 2.019900000000000168e-02 3.648499999999999660e-02 -3.367149999999999865e-01 4.870633999999999908e+00 5.069919999999999982e-01 -2.096040000000000125e-01 -6.817060000000000342e-01 1.027911999999999937e+00 2.103710000000000024e-01 -9.223299999999999554e-02 -6.503229999999999844e-01 -1.849598000000000075e+00 -5.079100000000000281e-02 1.552888000000000046e+00 7.116970000000000240e-01 2.096599999999999853e-02 3.361739999999999728e-01 -3.186221000000000192e+00 -4.725900000000000212e+00 -2.665614000000000150e+00 2.175080000000000069e-01 3.038449999999999762e-01 -6.549080000000000457e-01 1.790580000000000060e+00 5.728095999999999854e+00 -6.601300000000000168e+00 -1.520375000000000032e+00 -5.670914999999999928e+00 6.245239999999999903e+00 2.825511000000000106e+00 2.132261000000000184e+00 5.997759999999999758e-01 1.267449000000000048e+00 1.571666999999999925e+00 -9.909900000000000653e-02 -1.128649999999999931e-01 -8.960400000000000309e-02 -1.381999999999999895e-01 5.379159999999999497e-01 1.275700000000000056e+00 4.750900000000000262e-02 -1.305668999999999969e+00 -1.167109999999999953e-01 -3.506400000000000072e-01 1.776847000000000065e+00 -8.233479999999999688e-01 3.838210000000000233e-01 -3.269839999999999969e-01 -3.071800000000000086e-01 -3.218130000000000157e-01
5.573899999999999688e-02 -5.701289999999999969e-01 7.310419999999999696e-01 7.820700000000000429e-01 7.254700000000000037e-02 -3.371830000000000105e-01 1.897770000000000012e-01 -1.219638000000000000e+00 -4.290970000000000062e-01 -6.575750000000000206e-01 -1.024309999999999943e-01 -1.179602999999999957e+00 9.651619999999999644e-01 3.978149999999999742e-01 1.312205999999999984e+00 2.733909000000000145e+00 6.276319999999999677e-01 -6.366100000000000092e-01 8.674009999999999776e-01 1.101757000000000097e+00 -2.844849999999999879e-01 -1.757720000000000116e-01 5.197754999999999903e+00 -1.430825999999999931e+00 -3.796320000000000250e-01 -5.012630000000000141e-01 -1.962750000000000050e-01 3.491509999999999891e-01 -4.362219999999999986e-01 -5.974180000000000046e-01 -7.986469999999999958e-01 -2.022559999999999913e-01 -4.699909999999999921e-01 -1.136387999999999954e+00 3.307680000000000065e-01 1.777730000000000032e+00 2.559620000000000228e-01 5.625189999999999912e-01 -1.340969999999999940e-01 -8.691100000000000214e-02 4.824799999999999922e-02 -5.130940000000000500e-01 -2.823049999999999726e-01 1.427872000000000030e+00 1.802883999999999931e+00 2.291350000000000053e-01 -1.346900999999999904e+00 -1.457433999999999896e+00 7.433030000000000470e-01 -1.027310000000000029e-01 8.139950000000000241e-01 1.949730000000000074e-01 1.769010000000000027e-01 -1.611999999999999935e-03 -6.628629999999999800e-01 -1.740379999999999983e-01 -1.440015999999999963e+00 1.511129999999999973e-01 -4.278850000000000153e-01 1.039655999999999914e+00 -4.119316999999999673e+00 -1.864638999999999935e+00 8.871838999999999587e+00 -1.611519999999999897e-01 6.391179999999999639e-01 -3.015299999999999925e-02 -1.025320000000000009e+00 -1.171442000000000094e+00 -1.571752999999999956e+00 6.816640000000000477e-01 -1.514870000000000105e-01 2.851290000000000213e-01 -5.584480000000000555e-01 1.516124000000000027e+00 7.727399999999999547e-02 -1.987476000000000020e+00 6.385629999999999917e-01 5.162360000000000282e-01 -6.032060000000000199e-01 5.203800000000000092e-02 6.556499999999999828e-02 1.426679999999999893e-01 -6.005479999999999707e-01 2.302949999999999997e-01 9.963180000000000369e-01 -7.702189999999999870e-01 -3.934949999999999837e-01 1.788040999999999991e+00 -2.990223999999999993e+00 4.915030000000000232e-01 1.645942999999999934e+00 2.856159999999999810e-01 -7.135407999999999973e+00 -1.373159999999999936e-01 -4.432200000000000029e-01 2.231950000000000045e-01
4.442999999999999901e-03 -1.689329999999999998e-01 6.662919999999999954e-01 -2.880969999999999920e-01 5.946190000000000087e-01 1.374381000000000075e+00 -1.076985000000000081e+00 -1.525573000000000068e+00 -6.965909999999999602e-01 -1.197410000000000002e-01 -4.461865999999999666e+00 8.773547000000000651e+00 -7.642959999999999754e-01 1.844438000000000022e+00 -9.491800000000000237e-02 -2.398369999999999946e-01 -8.456059999999999688e-01 -2.568421999999999983e+00 -3.732969999999999899e-01 1.081132999999999900e+00 -9.402620000000000422e-01 1.530269999999999964e-01 1.290710999999999942e+00 5.919180000000000552e-01 2.318083999999999811e+00 2.478645000000000209e+00 1.558002000000000109e+00 -3.109100000000000058e-02 6.908980000000000121e-01 -2.320099999999999940e-01 -4.920689999999999786e-01 -8.317719999999999558e-01 -1.215721000000000052e+00 7.268299999999999761e-02 -3.891780000000000239e-01 1.166650000000000048e-01 3.315599999999999797e-02 -1.488039999999999918e-01 -1.977937000000000056e+00 8.545730000000000270e-01 4.955649999999999777e-01 -1.687329999999999997e+00 1.097010000000000068e-01 -2.171530000000000127e-01 5.888940000000000285e-01 -2.143500000000000127e-01 1.203700000000000082e-02 -5.356000000000000344e-02 1.070529999999999954e-01 1.105793000000000026e+00 1.001657999999999937e+00 -1.667099999999999971e-01 -1.128338999999999981e+00 1.495705000000000062e+00 3.021869999999999834e-01 1.993850000000000067e-01 -2.974699999999999914e-02 9.732599999999999585e-02 1.670850000000000113e-01 -3.244670000000000054e-01 3.099040000000000128e-01 2.807099999999999873e-02 3.524749999999999828e-01 -8.950599999999999667e-01 -6.621930000000000316e-01 2.564110000000000000e-01 2.914249999999999896e-01 7.574309999999999654e-01 -4.806340000000000057e-01 4.175909999999999900e-01 8.407599999999999796e-02 2.417989999999999862e-01 -1.191934000000000049e+00 1.536775999999999920e+00 -5.799290000000000278e-01 3.004450000000000176e-01 3.075058999999999987e+00 -9.458878000000000341e+00 4.360620000000000052e-01 -3.930710000000000037e-01 1.840449999999999919e+00 3.661400000000000071e-02 -3.259400000000000075e-01 3.604600000000000026e-01 1.624231999999999898e+00 6.359369999999999745e-01 6.922200000000000575e-02 5.817620000000000013e-01 -8.724690000000000500e-01 7.006339999999999790e-01 -6.153370000000000228e-01 -1.433464000000000071e+00 8.373180000000000067e-01 -1.581463999999999981e+00 -2.673299000000000092e+00 -4.854260000000000241e-01
-7.537369999999999903e-01 -3.756070000000000242e-01 1.864222000000000046e+00 7.205859999999999488e-01 8.467409999999999659e-01 -2.517880000000000118e-01 3.805499999999999994e-01 6.932639999999999914e-01 -2.989879999999999760e-01 -5.585879999999999734e-01 9.891590000000000105e-01 6.893730000000000135e-01 3.919130000000000114e-01 -6.991950000000000109e-01 -2.888669999999999849e-01 -9.235500000000000653e-02 8.503389999999999560e-01 -7.330830000000000402e-01 9.125029999999999530e-01 6.205349999999999477e-01 -9.397860000000000102e-01 -7.106729999999999992e-01 -7.293539999999999468e-01 -1.950459999999999972e-01 -8.793780999999999182e+00 1.780431000000000097e+00 1.080303000000000013e+00 7.375643000000000171e+00 -1.020281999999999911e+00 -1.178730999999999973e+00 6.936199999999999311e-02 -8.367310000000000025e-01 -4.501459999999999906e-01 -3.885739999999999750e-01 5.711019999999999985e-01 3.953590000000000160e-01 -4.605710000000000082e-01 -1.716099000000000041e+00 3.022670000000000079e-01 3.932220000000000160e-01 -2.555120000000000169e-01 -3.279429999999999845e-01 6.548490000000000144e-01 -1.544909999999999894e-01 1.246519999999999989e-01 -1.514804999999999957e+00 1.185286999999999979e+00 -1.757185999999999915e+00 -6.863400000000000056e-02 -6.760840000000000183e-01 -6.730080000000000506e-01 1.015331999999999901e+00 8.231700000000000128e-02 -6.302780000000000049e-01 1.453999999999999997e-03 -4.078039999999999998e-01 1.864578999999999986e+00 1.752720000000000111e-01 3.668330000000000202e-01 2.953100000000000169e-01 1.248859999999999970e-01 -2.061810000000000032e-01 -2.710659999999999736e-01 -2.527409999999999934e-01 7.854950000000000543e-01 8.705610000000000293e-01 1.680500000000000049e-01 3.294440000000000146e-01 -4.232279999999999931e-01 -8.758489999999999887e-01 2.803910000000000013e-01 2.209699999999999859e-02 1.842082999999999915e+00 -1.490617999999999999e+00 -6.343750000000000222e-01 1.284936999999999996e+00 -2.073689999999999978e-01 1.272653000000000034e+00 2.274780000000000135e-01 9.477989999999999471e-01 -4.936679999999999957e-01 9.075959999999999583e-01 -1.299710000000000032e-01 1.331266000000000060e+00 -8.023160000000000291e-01 -3.093159999999999799e-01 8.310300000000000464e-01 5.252869999999999484e-01 -4.346140000000000003e-01 -3.585630000000000206e-01 -9.761929999999999774e-01 2.941619999999999790e-01 3.136929999999999996e-01 -9.221869999999999790e-01 -9.740729999999999666e-01 -1.351615999999999929e+00