6.197866959999999814e+00 0.000000000000000000e+00 0.000000000000000000e+00 1.598424039999999935e-01 5.967289647000000308e+00 0.000000000000000000e+00 1.474089690000000008e-01 -2.719547599999999968e-02 6.176589048000000304e+00
6.280711296999999860e+00 0.000000000000000000e+00 0.000000000000000000e+00 1.619789510000000099e-01 6.047051951000000258e+00 0.000000000000000000e+00 1.493793240000000078e-01 -2.755898700000000007e-02 6.259148972000000200e+00
6.469871069999999946e+00 0.000000000000000000e+00 0.000000000000000000e+00 1.668573640000000080e-01 6.229174472999999601e+00 0.000000000000000000e+00 1.538782660000000135e-01 -2.838899699999999915e-02 6.447659340000000405e+00
5.944356309999999866e+00 0.000000000000000000e+00 0.000000000000000000e+00 -1.357859040000000128e-01 5.938405474999999711e+00 0.000000000000000000e+00 1.513382590000000028e-01 8.167522000000000670e-02 5.927955644999999940e+00
6.734625438000000131e+00 0.000000000000000000e+00 0.000000000000000000e+00 -1.538378850000000075e-01 6.727883473000000336e+00 0.000000000000000000e+00 1.714578390000000008e-01 9.253348599999999813e-02 6.716044397000000110e+00
6.221644026999999966e+00 0.000000000000000000e+00 0.000000000000000000e+00 -4.336974899999999911e-02 6.382296785000000305e+00 0.000000000000000000e+00 -1.206346040000000064e-01 -1.111049969999999970e-01 6.249445650000000185e+00
6.199112903999999702e+00 0.000000000000000000e+00 0.000000000000000000e+00 1.598745370000000110e-01 5.968489238000000086e+00 0.000000000000000000e+00 1.474386020000000019e-01 -2.720094300000000173e-02 6.177830713999999723e+00
6.167740432999999634e+00 0.000000000000000000e+00 0.000000000000000000e+00 -4.299399799999999855e-02 6.327001315000000403e+00 0.000000000000000000e+00 -1.195894400000000052e-01 -1.101423970000000030e-01 6.195301186000000015e+00
6.573917715000000328e+00 0.000000000000000000e+00 0.000000000000000000e+00 -3.860273399999999966e-02 6.538826719000000232e+00 0.000000000000000000e+00 6.583905800000000585e-02 -1.422742140000000099e-01 6.645114773999999613e+00
6.660582409999999953e+00 0.000000000000000000e+00 0.000000000000000000e+00 1.717757920000000105e-01 6.412790838000000271e+00 0.000000000000000000e+00 1.584141109999999963e-01 -2.922581499999999874e-02 6.637715948000000310e+00
