-5.718258285999999657e+01
-5.709855445000000174e+01
-5.763106622000000101e+01
-5.735228868000000091e+01
-5.770507237999999717e+01
