3.146780000000000133e-01 5.221699999999999953e-02 3.901000000000000023e-01 -2.345109999999999972e-01 -1.633710999999999913e+00 7.701350000000000140e-01 -9.590319999999999956e-01 8.583920000000000439e-01 -1.245195999999999970e+00 9.712309999999999555e-01 5.020390000000000130e-01 1.410014000000000101e+00 1.760019999999999918e-01 5.967299999999999827e-01 2.514529999999999821e-01 4.222150000000000070e-01 -1.537669999999999870e-01 -4.411129999999999773e-01 -6.359199999999999575e-02 9.312900000000000345e-02 3.406739999999999768e-01 -5.603559999999999652e-01 -3.498290000000000011e-01 -1.354309999999999958e-01 6.122840000000000504e-01 2.609020000000000228e-01 -7.003040000000000376e-01 -4.113640000000000074e-01 2.697309999999999985e-01 1.842959999999999876e-01 1.458396999999999943e+00 -2.586060999999999943e+00 1.623088000000000086e+00 5.953800000000000064e-02 -1.356509999999999938e-01 -6.038099999999999717e-02 7.418339999999999934e-01 -5.746719999999999606e-01 -1.844972999999999974e+00 -1.964269999999999905e-01 9.505700000000000260e-02 2.387779999999999903e-01 -1.984963999999999951e+00 1.495921999999999974e+00 -1.358451000000000075e+00 -3.459329999999999905e-01 1.209572000000000092e+00 5.773129999999999651e-01
9.093649999999999789e-01 -4.675399999999999695e-02 2.281479999999999897e-01 5.930900000000000061e-02 -2.662059999999999982e-01 3.185099999999999737e-02 -4.165659999999999918e-01 9.757350000000000190e-01 -2.758900000000000241e-01 -3.293989999999999974e-01 -8.339180000000000481e-01 1.227446999999999955e+00 -1.279957000000000011e+00 2.858789999999999942e-01 4.412800000000000056e-02 4.951900000000000052e-02 6.301980000000000359e-01 5.028000000000000351e-03 -1.892991000000000090e+00 -1.250696999999999948e+00 -9.332589999999999497e-01 -1.913350000000000051e-01 1.942180000000000017e-01 -2.146889999999999910e-01 -3.396730000000000027e-01 -3.839500000000000135e-01 7.385600000000000498e-02 -1.193509999999999988e-01 4.184999999999999831e-01 2.796509999999999829e-01 1.364738000000000007e+00 1.470207999999999959e+00 1.837320000000000064e+00 1.391713999999999896e+00 -5.163429999999999964e-01 5.047409999999999952e-01 -2.515106999999999982e+00 1.962714999999999987e+00 1.363571000000000089e+00 1.051250000000000018e+00 -5.723789999999999711e-01 -6.080440000000000289e-01 8.130270000000000552e-01 3.764000000000000123e-01 -8.257109999999999728e-01 1.445456999999999992e+00 -2.443607000000000085e+00 -2.738148999999999944e+00
4.572530000000000205e-01 3.833700000000000302e-02 -5.139510000000000467e-01 -1.066805999999999921e+00 -2.897299999999999875e-01 -3.610639999999999961e-01 1.805460000000000120e-01 3.367020000000000013e-01 6.450580000000000203e-01 2.833499999999999908e-01 3.898719999999999963e-01 6.223880000000000523e-01 -3.993539999999999868e-01 -5.399180000000000090e-01 -2.048830000000000096e-01 -7.739099999999999868e-01 -6.525760000000000449e-01 5.896350000000000202e-01 -3.644009999999999749e-01 1.340880000000000127e-01 2.617820000000000147e-01 -2.232412000000000063e+00 4.137040000000000162e-01 -2.920603999999999978e+00 -4.563559999999999839e-01 5.197979999999999823e-01 -4.012859999999999761e-01 -3.611690000000000178e-01 4.947940000000000116e-01 -2.078959999999999975e-01 2.085085999999999995e+00 -1.591053000000000051e+00 2.169287999999999883e+00 1.226080999999999976e+00 1.328808999999999907e+00 1.348823000000000105e+00 3.390730000000000133e-01 -4.389970000000000261e-01 -2.417320000000000024e-01 2.420970000000000066e-01 1.467800000000000007e-02 5.305560000000000276e-01 5.505050000000000221e-01 -2.565689999999999915e-01 -8.714549999999999796e-01 2.904149999999999787e-01 9.805999999999999439e-02 -4.446599999999999997e-01
2.159040000000000126e-01 5.842979999999999841e-01 1.331759999999999888e-01 1.176559999999999967e-01 2.728929999999999967e-01 -4.239060000000000050e-01 -5.701340000000000297e-01 -8.571700000000000153e-02 1.138141999999999987e+00 1.600800000000000001e-01 -6.038289999999999491e-01 2.210840000000000027e-01 -2.212469999999999992e-01 -3.133589999999999987e-01 -6.873270000000000213e-01 -6.272640000000000438e-01 -7.148259999999999614e-01 -4.785769999999999746e-01 -1.532812000000000063e+00 -1.778569000000000067e+00 -9.429030000000000467e-01 3.865439999999999987e-01 3.192530000000000090e-01 3.242019999999999902e-01 3.556420000000000137e-01 -2.140239999999999920e-01 -2.337879999999999958e-01 -7.717009999999999703e-01 -2.287820000000000131e-01 -2.248300000000000021e-01 -5.004950000000000232e-01 5.267739999999999645e-01 1.261589999999999934e-01 8.557909999999999684e-01 -2.408230000000000093e-01 -4.746639999999999748e-01 3.616860000000000075e-01 5.378249999999999975e-01 -6.678539999999999477e-01 1.374599999999999989e-01 1.113064000000000053e+00 -3.665689999999999782e-01 1.714779000000000053e+00 1.537824000000000080e+00 2.084824999999999928e+00 -8.188900000000000345e-02 -7.120009999999999950e-01 4.728319999999999745e-01
-6.111269999999999758e-01 9.244019999999999460e-01 7.035479999999999512e-01 9.124500000000000666e-02 -1.720800000000000107e-02 2.494879999999999876e-01 1.599903999999999993e+00 5.193969999999999976e-01 -2.367340000000000000e+00 4.309299999999999936e-02 1.905979999999999897e-01 -3.496259999999999923e-01 1.003399999999999986e-01 -5.270099999999999785e-02 -1.635959999999999914e-01 1.238630000000000009e-01 -9.584700000000000164e-02 -5.833249999999999824e-01 3.649999999999999772e-02 3.418160000000000087e-01 -7.360919999999999686e-01 2.003169999999999951e-01 -3.935969999999999747e-01 6.187999999999999924e-03 3.726909999999999945e-01 8.518869999999999498e-01 1.007829000000000086e+00 2.003999999999999879e-02 -3.158400000000000096e-01 8.134350000000000191e-01 4.604500000000000259e-01 2.482020000000000060e-01 4.636779999999999791e-01 2.911250000000000226e-01 1.215439999999999993e-01 -1.934559999999999891e-01 -2.239778999999999964e+00 -2.222456000000000209e+00 1.671928000000000081e+00 3.832889999999999908e-01 -3.250109999999999943e-01 3.089640000000000164e-01 4.746999999999999831e-02 4.221219999999999972e-01 -4.076960000000000028e-01 -9.194210000000000438e-01 -1.973080000000000112e-01 -4.239269999999999983e-01
