2.542291252000000057e+00 0.000000000000000000e+00 0.000000000000000000e+00 -1.854040900000000075e-02 4.573821245000000424e+00 0.000000000000000000e+00 5.824965629999999672e-01 1.199926599999999975e-02 2.116207367999999889e+01
2.542291252000000057e+00 0.000000000000000000e+00 0.000000000000000000e+00 -1.854040900000000075e-02 4.573821245000000424e+00 0.000000000000000000e+00 5.824965629999999672e-01 1.199926599999999975e-02 2.116207367999999889e+01
2.768386272999999953e+00 0.000000000000000000e+00 0.000000000000000000e+00 -4.369281900000000080e-02 4.826898139999999948e+00 0.000000000000000000e+00 4.166414699999999860e-02 7.899035000000000431e-03 1.949153259299999874e+01
2.592096442999999972e+00 0.000000000000000000e+00 0.000000000000000000e+00 5.621257100000000284e-02 4.725532276000000032e+00 0.000000000000000000e+00 9.828374500000000569e-02 -1.341610040000000004e-01 2.152133578700000172e+01
2.592096442999999972e+00 0.000000000000000000e+00 0.000000000000000000e+00 5.621257100000000284e-02 4.725532276000000032e+00 0.000000000000000000e+00 9.828374500000000569e-02 -1.341610040000000004e-01 2.152133578700000172e+01
2.542291252000000057e+00 0.000000000000000000e+00 0.000000000000000000e+00 -1.854040900000000075e-02 4.573821245000000424e+00 0.000000000000000000e+00 5.824965629999999672e-01 1.199926599999999975e-02 2.116207367999999889e+01
2.609427219000000076e+00 0.000000000000000000e+00 0.000000000000000000e+00 8.256158800000000519e-02 4.389959879000000065e+00 0.000000000000000000e+00 1.290684039999999977e-01 3.196959369999999856e-01 2.001494435300000063e+01
2.613971811999999950e+00 0.000000000000000000e+00 0.000000000000000000e+00 1.392267829999999929e-01 4.661024316999999861e+00 0.000000000000000000e+00 -4.362022480000000146e-01 1.686241700000000107e-02 2.060125477100000069e+01
2.592096442999999972e+00 0.000000000000000000e+00 0.000000000000000000e+00 5.621257100000000284e-02 4.725532276000000032e+00 0.000000000000000000e+00 9.828374500000000569e-02 -1.341610040000000004e-01 2.152133578700000172e+01
2.592096442999999972e+00 0.000000000000000000e+00 0.000000000000000000e+00 5.621257100000000284e-02 4.725532276000000032e+00 0.000000000000000000e+00 9.828374500000000569e-02 -1.341610040000000004e-01 2.152133578700000172e+01
2.592096442999999972e+00 0.000000000000000000e+00 0.000000000000000000e+00 5.621257100000000284e-02 4.725532276000000032e+00 0.000000000000000000e+00 9.828374500000000569e-02 -1.341610040000000004e-01 2.152133578700000172e+01
2.592096442999999972e+00 0.000000000000000000e+00 0.000000000000000000e+00 5.621257100000000284e-02 4.725532276000000032e+00 0.000000000000000000e+00 9.828374500000000569e-02 -1.341610040000000004e-01 2.152133578700000172e+01
2.592096442999999972e+00 0.000000000000000000e+00 0.000000000000000000e+00 5.621257100000000284e-02 4.725532276000000032e+00 0.000000000000000000e+00 9.828374500000000569e-02 -1.341610040000000004e-01 2.152133578700000172e+01
2.765711261999999948e+00 0.000000000000000000e+00 0.000000000000000000e+00 -7.810860499999999762e-02 4.772321803999999723e+00 0.000000000000000000e+00 2.492165620000000026e-01 -3.723514540000000261e-01 1.512594683700000076e+01
2.454778398000000195e+00 0.000000000000000000e+00 0.000000000000000000e+00 8.073716200000000121e-02 4.390795903999999972e+00 0.000000000000000000e+00 -1.522440379999999982e-01 1.393066609999999983e-01 1.579279362199999959e+01
2.545764183999999819e+00 0.000000000000000000e+00 0.000000000000000000e+00 6.574993799999999389e-02 4.589364449999999707e+00 0.000000000000000000e+00 6.286099100000000495e-02 -4.368044349999999909e-01 1.959161325999999903e+01
2.592096442999999972e+00 0.000000000000000000e+00 0.000000000000000000e+00 5.621257100000000284e-02 4.725532276000000032e+00 0.000000000000000000e+00 9.828374500000000569e-02 -1.341610040000000004e-01 2.152133578700000172e+01
2.542291252000000057e+00 0.000000000000000000e+00 0.000000000000000000e+00 -1.854040900000000075e-02 4.573821245000000424e+00 0.000000000000000000e+00 5.824965629999999672e-01 1.199926599999999975e-02 2.116207367999999889e+01
2.486585918999999922e+00 0.000000000000000000e+00 0.000000000000000000e+00 7.468402400000000163e-02 4.395701397999999926e+00 0.000000000000000000e+00 -2.778978469999999756e-01 -5.654739640000000511e-01 2.047778612800000175e+01
2.755483078000000141e+00 0.000000000000000000e+00 0.000000000000000000e+00 -5.448516500000000207e-02 4.751727337000000162e+00 0.000000000000000000e+00 4.729727639999999900e-01 -4.726588760000000056e-01 2.074615975500000076e+01
2.673241684000000173e+00 0.000000000000000000e+00 0.000000000000000000e+00 -1.148845490000000025e-01 4.425442281999999672e+00 0.000000000000000000e+00 -8.383308000000000426e-02 5.757322249999999864e-01 2.231481417999999906e+01
2.545764183999999819e+00 0.000000000000000000e+00 0.000000000000000000e+00 6.574993799999999389e-02 4.589364449999999707e+00 0.000000000000000000e+00 6.286099100000000495e-02 -4.368044349999999909e-01 1.959161325999999903e+01
2.451975981999999998e+00 0.000000000000000000e+00 0.000000000000000000e+00 -1.234056729999999935e-01 4.392275920000000333e+00 0.000000000000000000e+00 -1.970708740000000070e-01 -2.181525609999999948e-01 1.839103409999999883e+01
2.542291252000000057e+00 0.000000000000000000e+00 0.000000000000000000e+00 -1.854040900000000075e-02 4.573821245000000424e+00 0.000000000000000000e+00 5.824965629999999672e-01 1.199926599999999975e-02 2.116207367999999889e+01
2.418412792999999894e+00 0.000000000000000000e+00 0.000000000000000000e+00 1.183767629999999960e-01 4.267948302999999832e+00 0.000000000000000000e+00 -3.691606929999999842e-01 -2.552135249999999966e-01 1.460702291399999986e+01
2.632958314000000133e+00 0.000000000000000000e+00 0.000000000000000000e+00 1.161621089999999995e-01 4.575956245000000422e+00 0.000000000000000000e+00 4.984485379999999966e-01 -1.303213149999999931e-01 1.684598799700000171e+01
2.542291252000000057e+00 0.000000000000000000e+00 0.000000000000000000e+00 -1.854040900000000075e-02 4.573821245000000424e+00 0.000000000000000000e+00 5.824965629999999672e-01 1.199926599999999975e-02 2.116207367999999889e+01
2.542291252000000057e+00 0.000000000000000000e+00 0.000000000000000000e+00 -1.854040900000000075e-02 4.573821245000000424e+00 0.000000000000000000e+00 5.824965629999999672e-01 1.199926599999999975e-02 2.116207367999999889e+01
2.592096442999999972e+00 0.000000000000000000e+00 0.000000000000000000e+00 5.621257100000000284e-02 4.725532276000000032e+00 0.000000000000000000e+00 9.828374500000000569e-02 -1.341610040000000004e-01 2.152133578700000172e+01
2.592096442999999972e+00 0.000000000000000000e+00 0.000000000000000000e+00 5.621257100000000284e-02 4.725532276000000032e+00 0.000000000000000000e+00 9.828374500000000569e-02 -1.341610040000000004e-01 2.152133578700000172e+01
2.542291252000000057e+00 0.000000000000000000e+00 0.000000000000000000e+00 -1.854040900000000075e-02 4.573821245000000424e+00 0.000000000000000000e+00 5.824965629999999672e-01 1.199926599999999975e-02 2.116207367999999889e+01
2.592096442999999972e+00 0.000000000000000000e+00 0.000000000000000000e+00 5.621257100000000284e-02 4.725532276000000032e+00 0.000000000000000000e+00 9.828374500000000569e-02 -1.341610040000000004e-01 2.152133578700000172e+01
2.542291252000000057e+00 0.000000000000000000e+00 0.000000000000000000e+00 -1.854040900000000075e-02 4.573821245000000424e+00 0.000000000000000000e+00 5.824965629999999672e-01 1.199926599999999975e-02 2.116207367999999889e+01
2.592096442999999972e+00 0.000000000000000000e+00 0.000000000000000000e+00 5.621257100000000284e-02 4.725532276000000032e+00 0.000000000000000000e+00 9.828374500000000569e-02 -1.341610040000000004e-01 2.152133578700000172e+01
2.765932261000000114e+00 0.000000000000000000e+00 0.000000000000000000e+00 -1.193454050000000016e-01 4.704941959000000118e+00 0.000000000000000000e+00 -3.835548280000000143e-01 -6.588374000000000140e-03 1.763127714100000176e+01
2.592096442999999972e+00 0.000000000000000000e+00 0.000000000000000000e+00 5.621257100000000284e-02 4.725532276000000032e+00 0.000000000000000000e+00 9.828374500000000569e-02 -1.341610040000000004e-01 2.152133578700000172e+01
2.592096442999999972e+00 0.000000000000000000e+00 0.000000000000000000e+00 5.621257100000000284e-02 4.725532276000000032e+00 0.000000000000000000e+00 9.828374500000000569e-02 -1.341610040000000004e-01 2.152133578700000172e+01
2.592096442999999972e+00 0.000000000000000000e+00 0.000000000000000000e+00 5.621257100000000284e-02 4.725532276000000032e+00 0.000000000000000000e+00 9.828374500000000569e-02 -1.341610040000000004e-01 2.152133578700000172e+01
2.592096442999999972e+00 0.000000000000000000e+00 0.000000000000000000e+00 5.621257100000000284e-02 4.725532276000000032e+00 0.000000000000000000e+00 9.828374500000000569e-02 -1.341610040000000004e-01 2.152133578700000172e+01
2.542291252000000057e+00 0.000000000000000000e+00 0.000000000000000000e+00 -1.854040900000000075e-02 4.573821245000000424e+00 0.000000000000000000e+00 5.824965629999999672e-01 1.199926599999999975e-02 2.116207367999999889e+01
2.684890980000000038e+00 0.000000000000000000e+00 0.000000000000000000e+00 3.134551000000000177e-03 4.526362143000000060e+00 0.000000000000000000e+00 2.330578580000000066e-01 -2.965076599999999854e-02 1.855778711299999983e+01
