2.125900000000000012e-01 1.478699999999999903e+00 7.144849999999999923e+00 1.279269999999999907e+00 1.713489999999999958e+00 1.769549999999999912e+01 1.043160000000000087e+00 3.894600000000000062e+00 1.168030000000000079e+01 2.319399999999999906e+00 3.936659999999999826e+00 5.387220000000000120e+00 2.486790000000000056e+00 2.240499999999999992e-01 9.894220000000000681e+00 8.014900000000000357e-01 3.675879999999999814e+00 7.446780000000000399e+00 1.283819999999999961e+00 1.834500000000000020e+00 4.986979999999999968e+00 1.020869999999999944e+00 2.516259999999999941e+00 2.314670000000000005e+00 1.621669999999999945e+00 1.772639999999999993e+00 1.154410000000000025e+01 1.673049999999999926e+00 4.068340000000000067e+00 1.685630000000000095e+01 1.854880000000000084e+00 2.406109999999999971e+00 9.301489999999999370e+00 2.467699999999999783e+00 4.566970000000000418e+00 2.908830000000000027e+00
1.964100000000000013e-01 1.404379999999999962e+00 7.086400000000000254e+00 1.188269999999999937e+00 1.687210000000000099e+00 1.794460000000000122e+01 7.126400000000000512e-01 4.055390000000000050e+00 1.196589999999999954e+01 2.498619999999999841e+00 4.313920000000000421e+00 5.110570000000000057e+00 2.671040000000000081e+00 4.348810000000000286e+00 9.618380000000000152e+00 8.081399999999999695e-01 3.780940000000000190e+00 7.690479999999999983e+00 1.284659999999999913e+00 1.933400000000000007e+00 4.622690000000000410e+00 1.269700000000000051e+00 2.567299999999999915e+00 1.950110000000000010e+00 1.270250000000000101e+00 1.524299999999999988e+00 1.192109999999999914e+01 2.119009999999999838e+00 4.001009999999999955e+00 1.702870000000000061e+01 1.847930000000000073e+00 2.092029999999999834e+00 9.486399999999999721e+00 2.198040000000000216e+00 3.795000000000000040e-01 2.735910000000000064e+00
9.791999999999999593e-01 1.334899999999999975e+00 1.139610000000000056e+01 2.041500000000000092e+00 4.216689999999999827e+00 1.056049999999999933e+01 1.681400000000000117e-01 1.254170000000000007e+00 4.207110000000000127e+00 1.918819999999999970e+00 3.657880000000000020e+00 4.701740000000000030e+00 2.460179999999999811e+00 5.072699999999999987e-01 2.275819999999999954e+00 2.027810000000000112e+00 1.866069999999999895e+00 6.309709999999999930e+00 3.774199999999999777e-01 2.188629999999999853e+00 9.486439999999999984e+00 2.440799999999999859e+00 2.189880000000000049e+00 2.990399999999999725e-01 9.165699999999999958e-01 2.888790000000000191e+00 2.071950000000000180e+00 3.812200000000000033e-01 4.039830000000000254e+00 7.071970000000000312e+00 2.006400000000000183e+00 1.728999999999999981e-01 8.719889999999999475e+00 7.951599999999999779e-01 4.661360000000000170e+00 2.368999999999999995e-01
1.684679999999999955e+00 7.221899999999999986e-01 3.166349999999999998e+00 2.233610000000000095e+00 2.964220000000000077e+00 1.563099999999999934e+00 3.121099999999999985e-01 3.402899999999999814e-01 1.447680000000000078e+01 7.746999999999999720e-02 3.410600000000000076e+00 3.855379999999999807e+00 1.188000000000000028e-01 3.958779999999999966e+00 6.223880000000000301e+00 5.051999999999999824e-01 1.182779999999999943e+00 8.091730000000000089e+00 2.049960000000000004e+00 3.457510000000000083e+00 8.605710000000000193e+00 7.617000000000000437e-01 2.672280000000000211e+00 1.986139999999999972e+01 9.264000000000000012e-01 4.366599999999999926e-01 6.376899999999999791e-01 2.221600000000000019e+00 3.486000000000000210e-02 1.985709999999999908e+01 1.153559999999999919e+00 1.722660000000000080e+00 5.787849999999999717e+00 1.687370000000000037e+00 2.061879999999999935e+00 1.484309999999999974e+01
1.994950000000000001e+00 2.002899999999999958e-01 3.576680000000000081e+00 6.205300000000000260e-01 2.832310000000000105e+00 1.592859999999999943e+00 4.223700000000000232e-01 3.980459999999999887e+00 1.391450000000000031e+01 1.076070000000000082e+00 2.466600000000000126e+00 3.590259999999999785e+00 1.955359999999999987e+00 3.947830000000000172e+00 5.973950000000000315e+00 8.658000000000000418e-02 3.449770000000000003e+00 8.152540000000000120e+00 1.081350000000000033e+00 1.239009999999999945e+00 8.653140000000000498e+00 1.312070000000000070e+00 1.273819999999999952e+00 2.086649999999999849e+01 2.028899999999999870e-01 8.111599999999999921e-01 1.528489999999999904e+00 3.860700000000000243e-01 3.873349999999999849e+00 2.063759999999999906e+01 6.954799999999999871e-01 1.443049999999999944e+00 5.513639999999999652e+00 1.362870000000000026e+00 2.172579999999999956e+00 1.297000000000000064e+01
4.052499999999999991e-01 1.179659999999999931e+00 6.393340000000000245e+00 1.907999999999999918e+00 1.476869999999999905e+00 1.821630000000000038e+01 1.231630000000000003e+00 3.278119999999999923e+00 1.202420000000000044e+01 5.211200000000000276e-01 4.200479999999999769e+00 5.084769999999999790e+00 2.007429999999999826e+00 3.238230000000000164e+00 1.000939999999999941e+01 1.569250000000000034e+00 3.815729999999999844e+00 7.417370000000000019e+00 1.854729999999999990e+00 2.320409999999999862e+00 4.708330000000000126e+00 9.944499999999999451e-01 4.073649999999999771e+00 2.727899999999999991e+00 8.515000000000000346e-01 1.359199999999999964e+00 1.073629999999999995e+01 5.439399999999999791e-01 3.760949999999999793e+00 1.877100000000000080e+01 1.104519999999999946e+00 1.837409999999999988e+00 8.423600000000000421e+00 2.530580000000000052e+00 1.547490000000000032e+00 2.648779999999999912e+00
1.898339999999999916e+00 3.056799999999999962e+00 1.936110000000000042e+01 2.018699999999999939e+00 2.503400000000000070e+00 1.718660000000000077e+00 1.484709999999999974e+00 3.678150000000000031e+00 1.238819999999999943e+01 1.178150000000000031e+00 1.243370000000000086e+00 8.008580000000000254e+00 2.032599999999999962e-01 3.502800000000000136e+00 7.655219999999999914e+00 9.715500000000000247e-01 4.407400000000000206e-01 6.001669999999999838e+00 2.318729999999999958e+00 7.271900000000000031e-01 1.935399999999999920e+01 2.726700000000000235e-01 2.387469999999999981e+00 1.013199999999999967e+01 1.907829999999999915e+00 4.306200000000000028e-01 1.347140000000000004e+00 1.717840000000000034e+00 4.097159999999999691e+00 9.641280000000000072e+00 2.189839999999999787e+00 2.424370000000000136e+00 5.409340000000000259e+00 6.860100000000000087e-01 3.506660000000000110e+00 3.489209999999999923e+00
2.310690000000000133e+00 2.768679999999999808e+00 2.077879999999999949e+00 8.597099999999999742e-01 3.291799999999999726e-01 6.798429999999999751e+00 2.116690000000000182e+00 2.756569999999999965e+00 1.171400000000000041e+01 1.564300000000000135e-01 2.661459999999999937e+00 6.244629999999999903e+00 6.404100000000000348e-01 6.209299999999999820e-01 1.136260000000000048e+01 1.066030000000000033e+00 3.554510000000000058e+00 9.425860000000000127e+00 2.331519999999999815e+00 3.656900000000000150e-01 2.439690000000000136e+00 2.005720000000000169e+00 2.936990000000000212e+00 1.938340000000000174e+01 3.067900000000000071e-01 4.451069999999999638e+00 4.668050000000000033e+00 1.543290000000000051e+00 4.636910000000000309e+00 3.263300000000000090e-01 9.608400000000000274e-01 2.058300000000000018e+00 4.020690000000000097e+00 3.811200000000000143e-01 9.034799999999999498e-01 9.392289999999999139e+00
1.650819999999999954e+00 1.133469999999999978e+00 2.493660000000000210e+00 4.143000000000000016e-01 2.753070000000000128e+00 1.078510000000000080e+00 3.902999999999999803e-01 -8.146000000000000463e-02 1.471840000000000082e+01 2.532700000000000173e+00 3.102450000000000152e+00 3.817880000000000162e+00 2.464230000000000143e+00 4.025960000000000427e+00 5.974879999999999747e+00 8.869399999999999507e-01 3.854699999999999793e-01 7.941449999999999676e+00 1.858559999999999990e+00 2.654129999999999878e+00 8.399430000000000618e+00 6.127399999999999514e-01 3.035829999999999806e+00 2.040780000000000172e+01 4.115099999999999869e-01 3.236700000000000133e-01 6.216500000000000359e-01 1.641250000000000098e+00 1.017849999999999921e+00 2.004980000000000118e+01 1.744199999999999973e+00 1.740760000000000085e+00 5.921789999999999665e+00 1.716979999999999951e+00 2.873510000000000009e+00 1.554499999999999993e+01
1.771570000000000089e+00 1.125890000000000057e+00 2.510060000000000180e+00 2.247899999999999898e-01 2.807970000000000077e+00 1.046459999999999946e+00 4.826300000000000034e-01 4.572320000000000384e+00 1.464289999999999914e+01 2.407379999999999853e+00 3.018670000000000186e+00 3.959330000000000016e+00 2.589669999999999916e+00 4.117099999999999760e+00 6.169380000000000308e+00 7.565100000000000158e-01 7.231899999999999995e-01 7.911439999999999806e+00 1.863550000000000040e+00 2.584060000000000024e+00 8.618489999999999540e+00 5.896900000000000475e-01 2.801359999999999850e+00 2.030030000000000001e+01 4.846500000000000252e-01 3.980099999999999749e-01 6.643299999999999761e-01 1.866630000000000011e+00 8.147699999999999942e-01 2.005399999999999849e+01 1.693040000000000100e+00 1.891480000000000050e+00 5.733310000000000350e+00 1.650649999999999951e+00 2.835420000000000051e+00 1.536030000000000051e+01
1.791009999999999991e+00 9.915000000000000480e-01 2.892030000000000101e+00 2.475509999999999877e+00 2.875509999999999788e+00 1.466329999999999911e+00 3.386500000000000066e-01 2.562200000000000033e-01 1.450590000000000046e+01 2.490299999999999958e+00 3.176439999999999930e+00 3.793089999999999851e+00 1.204299999999999954e-01 4.136420000000000208e+00 6.306230000000000224e+00 5.777799999999999603e-01 1.034510000000000041e+00 7.919699999999999740e+00 1.994050000000000100e+00 2.953479999999999883e+00 8.720610000000000639e+00 6.013600000000000056e-01 2.884370000000000100e+00 1.993290000000000006e+01 6.877499999999999725e-01 4.151799999999999935e-01 4.950800000000000201e-01 2.194370000000000154e+00 1.940699999999999925e-01 2.002120000000000033e+01 1.359809999999999963e+00 1.783670000000000089e+00 5.813620000000000232e+00 1.693500000000000005e+00 2.263339999999999907e+00 1.510350000000000037e+01
1.737729999999999997e+00 3.331700000000000217e-01 3.247100000000000097e+00 8.542899999999999938e-01 3.291269999999999918e+00 1.431319999999999926e+00 3.241200000000000192e-01 4.276740000000000208e+00 1.402250000000000085e+01 1.251770000000000049e+00 2.962610000000000188e+00 4.047699999999999854e+00 2.272320000000000118e+00 3.566910000000000025e+00 5.831550000000000011e+00 3.061900000000000177e-01 3.117389999999999883e+00 8.065039999999999765e+00 9.463099999999999845e-01 9.030799999999999939e-01 8.306630000000000180e+00 1.286389999999999922e+00 1.638640000000000096e+00 2.101180000000000092e+01 2.261319999999999997e+00 4.026899999999999924e-01 9.083599999999999453e-01 2.748099999999999987e-01 3.785940000000000083e+00 2.076330000000000098e+01 7.543199999999999905e-01 1.325990000000000002e+00 5.954950000000000188e+00 1.519079999999999986e+00 2.085809999999999942e+00 1.338000000000000078e+01
1.574319999999999942e+00 5.905000000000000249e-01 3.212839999999999918e+00 1.134870000000000045e+00 3.192470000000000141e+00 1.510610000000000008e+00 7.929999999999999549e-02 -8.200000000000000691e-03 1.407789999999999964e+01 1.184059999999999890e+00 2.993209999999999926e+00 4.018099999999999561e+00 2.522720000000000073e+00 3.595450000000000035e+00 5.942709999999999937e+00 4.289200000000000235e-01 3.009149999999999991e+00 8.081640000000000157e+00 1.015589999999999993e+00 3.852400000000000269e-01 8.107350000000000279e+00 1.317600000000000104e+00 1.943340000000000067e+00 2.087249999999999872e+01 1.805709999999999926e+00 6.537300000000000333e-01 8.919200000000000461e-01 1.397299999999999931e-01 3.642069999999999919e+00 2.042480000000000118e+01 7.799700000000000522e-01 1.171189999999999953e+00 6.127600000000000158e+00 1.749649999999999928e+00 1.796559999999999935e+00 1.370219999999999949e+01
2.131069999999999798e+00 1.826429999999999998e+00 8.003700000000000259e+00 1.369650000000000034e+00 3.843480000000000008e+00 4.102669999999999817e+00 2.493780000000000108e+00 1.247700000000000031e+00 2.277989999999999959e+00 2.446829999999999838e+00 3.592299999999999938e-01 1.073479999999999990e+01 1.996100000000000096e-01 1.136430000000000051e+00 4.333630000000000315e+00 1.028419999999999890e+00 2.069780000000000175e+00 6.253790000000000404e+00 6.706299999999999484e-01 2.046800000000000175e+00 4.300499999999999878e-01 5.163799999999999502e-01 2.925359999999999960e+00 1.248750000000000071e+01 1.821229999999999905e+00 2.669109999999999872e+00 1.014799999999999969e+01 9.223299999999999832e-01 4.410999999999999588e+00 8.771319999999999339e+00 1.296419999999999906e+00 3.464840000000000142e+00 2.106829999999999981e+00 2.607819999999999805e+00 5.739699999999999802e-01 1.351299999999999990e+01
1.375769999999999937e+00 2.006489999999999885e+00 1.202640000000000065e+01 1.229870000000000019e+00 3.325699999999999878e+00 6.145780000000000243e+00 6.205699999999999550e-01 3.721470000000000056e+00 3.846499999999999808e+00 9.944100000000000161e-01 3.174110000000000209e+00 8.593980000000000175e+00 7.954299999999999704e-01 2.565970000000000084e+00 7.001999999999999891e-02 1.262399999999999911e-01 4.404279999999999973e+00 1.203500000000000014e+01 8.161500000000000421e-01 3.123349999999999849e+00 1.400939999999999941e+01 1.826189999999999980e+00 1.493130000000000068e+00 4.470720000000000027e+00 1.787109999999999976e+00 8.321600000000000108e-01 1.477169999999999916e+01 3.625900000000000234e-01 9.628999999999999782e-01 1.018219999999999992e+01 1.864540000000000086e+00 1.013419999999999987e+00 7.314659999999999940e+00 5.641999999999999793e-02 5.582500000000000240e-01 1.712979999999999947e+00
7.948800000000000310e-01 3.783799999999999941e-01 1.899670000000000059e+01 1.819919999999999982e+00 3.595330000000000137e+00 8.161049999999999471e+00 6.112199999999999855e-01 7.016900000000000359e-01 1.167699999999999960e+01 3.251100000000000101e-01 1.733400000000000052e+00 9.754170000000000229e+00 1.807930000000000037e+00 2.738329999999999931e+00 1.866799999999999926e+01 5.288800000000000168e-01 3.370179999999999954e+00 3.209540000000000060e+00 1.696020000000000083e+00 2.973079999999999945e+00 1.171219999999999928e+01 2.183380000000000098e+00 3.544859999999999900e+00 5.741859999999999964e+00 5.513700000000000268e-01 1.027249999999999996e+00 4.516289999999999694e+00 1.543250000000000011e+00 3.021100000000000119e+00 1.073649999999999993e+00 2.343729999999999869e+00 7.133699999999999486e-01 1.618710000000000093e+00 1.793439999999999923e+00 1.461850000000000094e+00 7.593580000000000219e+00
1.919089999999999963e+00 2.416500000000000037e-01 3.404300000000000104e+00 6.830000000000000515e-01 3.001580000000000137e+00 1.598230000000000040e+00 4.591500000000000026e-01 3.944770000000000110e+00 1.391450000000000031e+01 1.123369999999999980e+00 2.634860000000000202e+00 3.698760000000000048e+00 2.076470000000000038e+00 3.802140000000000075e+00 5.976210000000000022e+00 1.585199999999999942e-01 3.307380000000000209e+00 8.100649999999999906e+00 1.011490000000000000e+00 1.183659999999999934e+00 8.576480000000000103e+00 1.273419999999999996e+00 1.336789999999999923e+00 2.093659999999999854e+01 5.593000000000000055e-02 6.244399999999999951e-01 1.313320000000000043e+00 3.644399999999999862e-01 3.897639999999999993e+00 2.070429999999999993e+01 7.269600000000000506e-01 1.439589999999999925e+00 5.610549999999999926e+00 1.344729999999999981e+00 2.275729999999999809e+00 1.313620000000000054e+01
2.584210000000000118e+00 1.467489999999999961e+00 7.177109999999999879e+00 1.278100000000000014e+00 1.791269999999999918e+00 1.737950000000000017e+01 1.131119999999999903e+00 4.088440000000000296e+00 1.163669999999999938e+01 2.184039999999999981e+00 3.844619999999999926e+00 5.438119999999999621e+00 2.437469999999999803e+00 4.675199999999999911e-01 9.722120000000000317e+00 1.039530000000000065e+00 3.625980000000000203e+00 7.350419999999999732e+00 1.246660000000000101e+00 1.568570000000000020e+00 5.069230000000000125e+00 8.822799999999999532e-01 2.315139999999999976e+00 2.812570000000000014e+00 1.990169999999999995e+00 1.596270000000000078e+00 1.150719999999999921e+01 1.404519999999999991e+00 4.061619999999999564e+00 1.685460000000000136e+01 1.789120000000000044e+00 2.774890000000000079e+00 9.090009999999999479e+00 9.747999999999999721e-02 4.486399999999999721e+00 3.123670000000000169e+00
1.245039999999999925e+00 2.775599999999999734e-01 1.840330000000000155e+01 4.769599999999999951e-01 4.163200000000000234e-01 6.086479999999999890e+00 3.929900000000000060e-01 2.186199999999999921e+00 4.631330000000000169e+00 1.221700000000000008e+00 1.473209999999999908e+00 1.148240000000000016e+01 6.575999999999999901e-02 8.217600000000000460e-01 1.940620000000000012e+00 1.535250000000000004e+00 1.805799999999999905e-01 4.027890000000000192e+00 1.789600000000000080e+00 2.898280000000000189e+00 6.998730000000000118e+00 1.441159999999999997e+00 7.707199999999999607e-01 2.032430000000000092e+01 7.095099999999999740e-01 2.605579999999999785e+00 9.118779999999999220e+00 4.773600000000000065e-01 3.641340000000000021e+00 1.193870000000000076e+01 2.054400000000000115e-01 2.679739999999999789e+00 2.018840000000000146e+01 1.586529999999999996e+00 6.034500000000000419e-01 8.547499999999999432e+00
8.183200000000000474e-01 3.762140000000000040e+00 3.146970000000000045e+00 5.507400000000000073e-01 4.038230000000000430e+00 7.504590000000000316e+00 3.100459999999999994e+00 4.290949999999999598e+00 2.018700000000000117e+01 2.797050000000000036e+00 2.103089999999999904e+00 7.677240000000000286e+00 2.767419999999999991e+00 1.359499999999999931e+00 3.197799999999999976e+00 4.374299999999999855e-01 2.435680000000000067e+00 5.654690000000000438e+00 1.702430000000000110e+00 1.833899999999999975e-01 5.474400000000000155e+00 2.405120000000000147e+00 -9.030000000000000526e-02 1.165670000000000073e+01 1.494480000000000031e+00 6.410400000000000542e-01 1.407189999999999941e+00 1.492729999999999890e+00 1.445170000000000066e+00 9.789189999999999614e+00 2.522349999999999870e+00 2.972659999999999858e+00 7.691999999999999948e-01 9.052700000000000191e-01 3.334429999999999783e+00 1.245529999999999937e+01
2.265499999999999847e+00 4.590670000000000250e+00 6.848119999999999763e+00 1.892840000000000078e+00 3.844219999999999970e+00 4.359560000000000102e+00 6.322499999999999787e-01 4.427220000000000155e+00 2.194010000000000105e+01 1.369459999999999900e+00 2.722719999999999807e+00 1.058300000000000018e+01 1.633289999999999909e+00 2.959119999999999973e+00 8.216810000000000613e+00 2.040550000000000086e+00 1.437640000000000029e+00 4.262199999999999989e+00 1.699370000000000047e+00 1.617490000000000094e+00 2.637399999999999745e-01 7.194500000000000339e-01 2.637020000000000142e+00 5.916129999999999889e+00 1.839139999999999997e+00 5.131099999999999550e-01 2.387570000000000192e+00 7.096000000000000085e-01 8.763300000000000534e-01 9.256610000000000227e+00 4.742100000000000204e-01 2.608900000000000219e+00 2.611549999999999816e+00 2.425419999999999909e+00 5.847299999999999720e-01 1.144159999999999933e+01
2.052309999999999857e+00 4.082239999999999647e+00 1.874599999999999866e+01 5.794200000000000461e-01 2.183499999999999885e-01 1.038519999999999932e+01 2.451779999999999848e+00 1.140269999999999895e+00 1.263949999999999996e+01 2.082300000000000040e+00 2.739400000000000168e-01 8.652850000000000819e+00 6.183800000000000407e-01 1.929610000000000047e+00 1.838860000000000028e+01 2.229800000000000115e-01 4.298379999999999868e+00 2.829260000000000108e+00 5.027099999999999902e-01 3.384850000000000136e+00 1.246829999999999927e+01 3.043600000000000194e-01 3.416959999999999997e+00 6.531240000000000379e+00 2.153500000000000192e+00 1.877720000000000056e+00 3.730710000000000193e+00 9.542000000000000481e-02 2.862839999999999829e+00 9.550400000000000000e-01 1.379170000000000007e+00 7.207799999999999763e-01 1.331650000000000000e+00 1.011030000000000095e+00 1.052880000000000038e+00 6.064219999999999722e+00
1.757900000000000018e-01 4.251509999999999678e+00 9.350149999999999295e+00 1.664360000000000062e+00 7.498599999999999710e-01 1.083820000000000050e+01 1.113510000000000000e+00 2.007359999999999811e+00 1.318210000000000015e+01 1.090889999999999915e+00 2.584179999999999922e+00 1.719679999999999964e+01 1.449910000000000032e+00 3.609589999999999854e+00 1.508120000000000083e+01 5.719499999999999584e-01 3.480669999999999931e+00 1.333139999999999992e+00 1.617200000000000026e-01 2.753680000000000128e+00 1.093260000000000076e+01 1.616479999999999917e+00 4.144090000000000273e+00 1.296429999999999971e+01 8.067800000000000527e-01 2.066380000000000106e+00 3.102380000000000138e+00 1.901759999999999895e+00 3.727699999999999902e-01 1.745660000000000167e+01 1.575709999999999944e+00 2.086710000000000065e+00 8.803910000000000124e+00 2.660699999999999732e-01 1.031730000000000036e+00 1.489569999999999972e+01
2.329499999999999904e-01 1.348419999999999952e+00 7.122600000000000264e+00 1.229389999999999983e+00 1.689850000000000074e+00 1.789999999999999858e+01 8.470800000000000551e-01 3.917559999999999931e+00 1.186800000000000033e+01 2.440929999999999822e+00 4.188410000000000188e+00 5.190599999999999881e+00 2.626030000000000086e+00 4.449569999999999581e+00 9.648260000000000502e+00 7.352400000000000047e-01 3.855560000000000098e+00 7.663739999999999775e+00 1.289909999999999890e+00 1.917070000000000052e+00 4.752550000000000274e+00 1.195799999999999974e+00 2.558260000000000201e+00 2.015369999999999884e+00 1.345960000000000045e+00 1.716450000000000031e+00 1.180829999999999913e+01 1.965319999999999956e+00 4.028100000000000236e+00 1.693939999999999912e+01 1.871620000000000061e+00 2.177639999999999798e+00 9.465419999999999945e+00 2.284469999999999779e+00 2.413099999999999967e-01 2.787030000000000118e+00
1.422539999999999916e+00 3.453689999999999927e+00 6.224179999999999602e+00 2.162100000000000133e-01 3.895249999999999879e+00 3.673939999999999984e+00 4.485799999999999788e-01 1.051819999999999977e+00 1.464669999999999916e+00 8.086000000000000132e-02 3.656660000000000021e+00 1.321870000000000012e+01 1.936700000000000088e-01 1.356670000000000043e+00 6.396880000000000344e+00 1.755940000000000056e+00 6.503100000000000547e-01 9.257039999999999935e+00 1.363269999999999982e+00 1.529979999999999896e+00 1.137759999999999927e+01 1.109040000000000026e+00 1.422520000000000007e+00 1.349929999999999986e+01 7.421400000000000219e-01 2.846789999999999932e+00 8.474370000000000402e+00 1.611739999999999950e+00 3.103250000000000064e+00 9.254999999999999893e-01 1.334870000000000001e+00 1.824079999999999924e+00 3.871020000000000127e+00 3.761300000000000199e-01 3.527070000000000149e+00 1.139470000000000027e+01
1.883199999999999874e-01 4.257139999999999702e+00 9.698299999999999699e-01 1.424220000000000041e+00 1.529600000000000126e-01 4.436499999999999666e+00 3.189400000000000013e-01 2.024869999999999948e+00 2.513349999999999973e+00 2.281019999999999825e+00 1.606999999999999984e+00 1.353040000000000020e+01 2.813349999999999795e+00 -6.599999999999999964e-03 1.190189999999999948e+01 5.455299999999999594e-01 3.724969999999999892e+00 9.529780000000000584e+00 1.974699999999999900e+00 9.764000000000000457e-02 1.569030000000000058e+01 1.063020000000000076e+00 5.717999999999999750e-01 7.140080000000000204e+00 1.696050000000000058e+00 2.862880000000000091e+00 6.833569999999999922e+00 1.451370000000000049e+00 2.603200000000000180e+00 1.600049999999999883e+01 1.141280000000000072e+00 2.621609999999999996e+00 1.149450000000000038e+01 1.817069999999999963e+00 1.600300000000000056e+00 4.692200000000000260e-01
2.718059999999999921e+00 1.214620000000000033e+00 6.608660000000000423e+00 1.617490000000000094e+00 1.503300000000000081e+00 1.779080000000000084e+01 1.430879999999999930e+00 3.456490000000000062e+00 1.241430000000000078e+01 5.720499999999999474e-01 4.324910000000000032e+00 4.777800000000000047e+00 2.439430000000000209e+00 3.253499999999999837e+00 1.005150000000000077e+01 1.821660000000000057e+00 3.882400000000000073e+00 7.195260000000000211e+00 1.617709999999999981e+00 2.175809999999999800e+00 4.794620000000000104e+00 8.395599999999999730e-01 3.743290000000000006e+00 2.716200000000000170e+00 9.003299999999999637e-01 1.408490000000000020e+00 1.083649999999999913e+01 5.368899999999999784e-01 3.814470000000000027e+00 1.884489999999999910e+01 9.343900000000000539e-01 1.848149999999999959e+00 8.465249999999999275e+00 9.395000000000000573e-02 1.462760000000000060e+00 2.665430000000000188e+00
3.029800000000000271e-01 1.135329999999999950e+00 6.474300000000000388e+00 1.760229999999999961e+00 1.490059999999999940e+00 1.798229999999999862e+01 1.340090000000000003e+00 3.355319999999999858e+00 1.221659999999999968e+01 5.488300000000000400e-01 4.278640000000000221e+00 4.950450000000000017e+00 2.221010000000000151e+00 3.166059999999999874e+00 1.006189999999999962e+01 1.698260000000000103e+00 3.873650000000000038e+00 7.297130000000000116e+00 1.747600000000000042e+00 2.256889999999999841e+00 4.773360000000000269e+00 8.921000000000000041e-01 3.944269999999999943e+00 2.748720000000000052e+00 8.724800000000000333e-01 1.467009999999999925e+00 1.074789999999999957e+01 5.412700000000000289e-01 3.788229999999999986e+00 1.882789999999999964e+01 1.004899999999999904e+00 1.849129999999999940e+00 8.422290000000000276e+00 2.592659999999999965e+00 1.483600000000000030e+00 2.658549999999999969e+00
1.745780000000000109e+00 8.566899999999999515e-01 3.029790000000000205e+00 2.362080000000000179e+00 2.923230000000000217e+00 1.541670000000000096e+00 3.117099999999999871e-01 3.686699999999999977e-01 1.450200000000000067e+01 2.567649999999999988e+00 3.296390000000000153e+00 3.792260000000000186e+00 1.234600000000000003e-01 4.048510000000000275e+00 6.265690000000000204e+00 5.427400000000000002e-01 1.121129999999999960e+00 7.995470000000000077e+00 2.028550000000000075e+00 3.184969999999999857e+00 8.685959999999999681e+00 6.568199999999999594e-01 2.832660000000000178e+00 1.988100000000000023e+01 8.019600000000000062e-01 4.227199999999999847e-01 5.493299999999999850e-01 2.231339999999999879e+00 6.557000000000000328e-02 1.993759999999999977e+01 1.247840000000000060e+00 1.750259999999999927e+00 5.822070000000000078e+00 1.704599999999999893e+00 2.093900000000000095e+00 1.496729999999999983e+01
1.828819999999999890e+00 2.710099999999999731e-01 3.302760000000000140e+00 7.447899999999999521e-01 3.202900000000000080e+00 1.500520000000000076e+00 4.153200000000000225e-01 4.064040000000000319e+00 1.396289999999999942e+01 1.196430000000000105e+00 2.816040000000000099e+00 3.879980000000000206e+00 2.178589999999999804e+00 3.664950000000000152e+00 5.916290000000000049e+00 2.348300000000000110e-01 3.189020000000000188e+00 8.073850000000000193e+00 9.636200000000000321e-01 1.079839999999999911e+00 8.458589999999999165e+00 1.270890000000000075e+00 1.459870000000000001e+00 2.099370000000000047e+01 2.482909999999999950e+00 4.390700000000000158e-01 1.069169999999999954e+00 3.216300000000000270e-01 3.877029999999999976e+00 2.078239999999999910e+01 7.429700000000000193e-01 1.400220000000000020e+00 5.769709999999999894e+00 1.407869999999999955e+00 2.226249999999999840e+00 1.326040000000000063e+01
2.389199999999999935e-01 1.383709999999999996e+00 7.137979999999999769e+00 1.260389999999999899e+00 1.696749999999999980e+00 1.781569999999999965e+01 9.635700000000000376e-01 3.814109999999999889e+00 1.176600000000000001e+01 2.382639999999999869e+00 4.053460000000000285e+00 5.289279999999999760e+00 2.569189999999999863e+00 3.694000000000000061e-02 9.773020000000000707e+00 7.400999999999999801e-01 3.803580000000000183e+00 7.550349999999999895e+00 1.290079999999999893e+00 1.891750000000000043e+00 4.878809999999999647e+00 1.110870000000000024e+00 2.545840000000000103e+00 2.136299999999999866e+00 1.455559999999999965e+00 1.854419999999999957e+00 1.167660000000000053e+01 1.816459999999999964e+00 4.052260000000000417e+00 1.688380000000000081e+01 1.873189999999999911e+00 2.273330000000000073e+00 9.411780000000000257e+00 2.382280000000000175e+00 1.082199999999999968e-01 2.841600000000000126e+00
1.808440000000000047e+00 1.129129999999999967e+00 2.621539999999999981e+00 1.092599999999999960e-01 2.812910000000000021e+00 1.193559999999999954e+00 4.026399999999999979e-01 -3.296999999999999931e-02 1.457269999999999932e+01 2.399529999999999941e+00 3.021479999999999944e+00 3.919939999999999980e+00 2.653039999999999843e+00 4.178379999999999761e+00 6.270109999999999850e+00 6.810300000000000242e-01 8.331300000000000372e-01 7.883219999999999672e+00 1.900570000000000093e+00 2.643679999999999808e+00 8.679940000000000211e+00 5.810999999999999499e-01 2.816980000000000040e+00 2.014750000000000085e+01 5.303799999999999626e-01 4.111000000000000210e-01 5.820600000000000218e-01 1.995279999999999943e+00 6.123899999999999899e-01 2.007010000000000005e+01 1.603620000000000045e+00 1.877000000000000002e+00 5.727970000000000006e+00 1.659650000000000070e+00 2.661480000000000068e+00 1.530150000000000077e+01
2.586349999999999927e+00 1.351509999999999989e+00 6.656810000000000116e+00 1.484259999999999913e+00 1.516450000000000076e+00 1.765129999999999910e+01 1.514729999999999910e+00 3.560210000000000097e+00 1.255349999999999966e+01 5.687600000000000433e-01 4.411489999999999689e+00 4.692020000000000302e+00 2.610349999999999948e+00 3.450480000000000214e+00 1.004579999999999984e+01 1.905469999999999997e+00 3.789839999999999876e+00 7.122959999999999958e+00 1.485330000000000039e+00 2.102669999999999817e+00 4.773290000000000255e+00 8.361899999999999888e-01 3.519400000000000084e+00 2.597010000000000041e+00 9.536400000000000432e-01 1.256490000000000107e+00 1.098160000000000025e+01 5.282999999999999918e-01 3.839280000000000026e+00 1.881540000000000035e+01 9.346600000000000463e-01 1.862300000000000066e+00 8.592109999999999914e+00 1.143600000000000033e-01 1.428069999999999951e+00 2.679539999999999811e+00