-5.818140000000000533e-01 -8.991749999999999465e-01 6.460699999999999776e-02 -2.712069999999999759e-01 2.401020000000000099e-01 -5.394020000000000481e-01 -3.827920000000000211e-01 7.623360000000000136e-01 6.988790000000000280e-01 -7.416300000000000670e-02 8.735659999999999537e-01 -6.372339999999999671e-01 2.907029999999999892e-01 -2.496919999999999973e-01 -1.343908000000000103e+00 7.828880000000000283e-01 7.886879999999999447e-01 1.001090000000000035e+00 -1.462960000000000094e-01 -7.835710000000000175e-01 -6.919689999999999452e-01 2.333530000000000049e-01 -5.832619999999999472e-01 6.532790000000000541e-01 3.804370000000000251e-01 -1.362173000000000078e+00 5.685390000000000166e-01 2.716250000000000053e-01 -2.407430000000000125e-01 5.255490000000000439e-01 -2.873200000000000198e-01 7.180109999999999548e-01 -5.553399999999999448e-01 -2.154149999999999954e-01 7.359139999999999571e-01 2.559109999999999996e-01
-3.652329999999999743e-01 5.182090000000000307e-01 -2.058969999999999967e-01 -1.691219999999999946e-01 1.930400000000000171e-02 -8.776359999999999717e-01 -7.873769999999999936e-01 -2.596356999999999804e+00 -2.051199999999999898e-02 6.632499999999999507e-02 -4.047999999999999932e-01 4.063930000000000042e-01 -6.248359999999999470e-01 1.078845000000000054e+00 2.141198000000000157e+00 1.324346000000000023e+00 -1.170695000000000041e+00 -2.288070999999999966e+00 -1.088879999999999987e-01 1.918749999999999900e-01 7.662499999999999867e-02 -2.506869999999999932e-01 1.869230000000000058e-01 7.342079999999999718e-01 8.794380000000000530e-01 2.376069000000000209e+00 -4.963620000000000254e-01 1.700270000000000115e-01 -1.851799999999999974e-02 8.643739999999999757e-01 -3.870350000000000179e-01 -8.256900000000000350e-02 -2.509480000000000044e-01 2.530439999999999912e-01 -9.828499999999999737e-02 -8.336999999999999966e-02
3.463260000000000227e-01 -3.025470000000000104e-01 8.825960000000000472e-01 3.949170000000000180e-01 -2.233638000000000012e+00 3.897171999999999858e+00 1.215055999999999914e+00 8.358820000000000139e-01 1.836421000000000081e+00 -1.812529999999999974e-01 3.947840000000000238e-01 -4.167779999999999818e-01 -1.029622999999999955e+00 -9.768280000000000296e-01 -1.907334000000000085e+00 -4.437849999999999850e-01 -4.277429999999999843e-01 9.858270000000000088e-01 -2.843010000000000259e-01 1.178010999999999919e+00 -1.560774000000000106e+00 -5.065079999999999583e-01 -3.670459999999999834e-01 -7.688059999999999894e-01 4.522379999999999733e-01 4.063379999999999770e-01 1.483424999999999994e+00 6.972679999999999989e-01 -5.667990000000000528e-01 -1.393442000000000069e+00 -1.002043000000000017e+00 2.147120000000000140e+00 -3.166958000000000162e+00 3.417089999999999850e-01 -8.753500000000000170e-02 1.286509999999999876e-01
-3.044700000000000184e-01 7.882409999999999695e-01 -3.787409999999999943e-01 -1.607520000000000060e-01 -1.713729999999999976e-01 -4.421419999999999795e-01 4.609389999999999876e-01 -2.877050000000000107e+00 -2.785389999999999810e-01 5.277889999999999526e-01 -9.175419999999999687e-01 5.108439999999999648e-01 -8.032000000000000250e-02 4.832040000000000224e-01 3.495639999999999858e-01 -3.778999999999999807e-03 -2.501659999999999995e-01 -7.077899999999999470e-02 -3.010149999999999770e-01 9.084299999999999320e-02 -5.914519999999999778e-01 3.513760000000000217e-01 -7.928349999999999564e-01 5.190900000000000514e-01 -1.430579999999999907e-01 1.140570000000000056e-01 9.751100000000000045e-02 -2.912730000000000041e-01 7.838749999999999885e-01 4.936369999999999925e-01 4.053019999999999956e-01 -1.289889999999999926e-01 -5.076779999999999626e-01 -4.607399999999999829e-01 2.877733999999999792e+00 2.986869999999999803e-01
-1.668270000000000031e-01 -8.084569999999999812e-01 8.163920000000000066e-01 4.928000000000000089e-03 4.178357000000000099e+00 -3.075397000000000158e+00 -5.645769999999999955e-01 8.739470000000000294e-01 -2.449890000000000123e-01 8.995630000000000015e-01 6.301039999999999974e-01 1.720188999999999968e+00 -2.927879999999999927e-01 -2.147280000000000022e-01 -6.224889999999999590e-01 1.007689999999999975e-01 8.251000000000000001e-02 3.497589999999999866e-01 2.553070000000000062e-01 -2.772240000000000260e-01 -6.310499999999999998e-01 6.072349999999999692e-01 7.823759999999999604e-01 2.451810000000000100e-01 -5.354799999999999560e-01 -3.222917999999999950e+00 -9.430530000000000301e-01 -4.217549999999999910e-01 -6.566920000000000535e-01 5.976789999999999603e-01 -4.513539999999999774e-01 -4.873660000000000214e-01 1.629906999999999995e+00 5.649809999999999555e-01 -8.799090000000000522e-01 1.578720000000000123e-01
-6.579810000000000381e-01 2.635194999999999954e+00 2.201436999999999866e+00 -8.194999999999999507e-02 -7.834000000000000685e-03 5.852910000000000057e-01 -6.141240000000000032e-01 7.399010000000000309e-01 1.598006000000000038e+00 2.478889999999999982e-01 -1.176714999999999955e+00 -1.923748000000000014e+00 1.492542000000000035e+00 1.820281000000000038e+00 -1.514790000000000081e+00 5.144499999999999629e-01 6.362830000000000430e-01 -3.054209999999999980e-01 -8.717869999999999786e-01 -9.169629999999999725e-01 -6.117510000000000447e-01 6.308150000000000146e-01 -1.170822999999999947e+00 -1.153799999999999965e-02 -5.232689999999999841e-01 -1.995549000000000017e+00 6.025509999999999478e-01 8.095900000000000318e-02 8.973999999999999339e-03 -5.668969999999999843e-01 -1.172369999999999940e-01 -1.277128999999999959e+00 4.336949999999999972e-01 -1.003079999999999944e-01 7.043789999999999774e-01 -4.868359999999999910e-01
-1.157782000000000089e+00 -1.812227999999999950e+00 -3.872699999999999754e-02 2.807839999999999780e-01 1.564084999999999948e+00 5.134959999999999525e-01 6.132000000000000298e-03 -2.263310000000000044e-01 -1.119186000000000014e+00 4.948480000000000101e-01 1.903089999999999948e+00 1.115021000000000040e+00 -5.410730000000000262e-01 -1.160773000000000055e+00 5.261000000000000051e-03 7.049400000000000110e-02 -9.493589999999999529e-01 -2.728820999999999941e+00 1.722169000000000061e+00 1.836743999999999932e+00 -3.674228999999999967e+00 6.567239999999999744e-01 -2.885835999999999846e+00 9.920369999999999466e-01 -8.940979999999999484e-01 -2.056938999999999851e+00 3.384049999999999780e+00 -7.801339999999999941e-01 2.548570999999999920e+00 1.052621999999999947e+00 -6.297500000000000320e-02 6.717659999999999743e-01 1.161539999999999934e-01 2.049090000000000078e-01 5.672110000000000207e-01 3.823219999999999952e-01
-1.050389999999999935e-01 -2.316729999999999901e-01 -9.070120000000000404e-01 7.620559999999999556e-01 6.922699999999999687e-02 1.016367999999999938e+00 -9.722200000000000286e-02 3.765970000000000151e-01 -7.557300000000000129e-01 -5.857839999999999714e-01 -2.897489999999999788e-01 6.417770000000000419e-01 8.352140000000000120e-01 -1.050994999999999902e+00 4.158659000000000106e+00 9.698970000000000091e-01 -3.054867999999999917e+00 4.268799999999999678e-02 2.388750000000000040e-01 9.472509999999999541e-01 8.549800000000000455e-02 1.848130000000000051e-01 1.209650000000000031e-01 7.116919999999999913e-01 -3.777449999999999974e-01 -1.021829999999999961e-01 -3.108940000000000037e-01 -6.331040000000000001e-01 -3.678890000000000216e-01 -4.380240000000000244e-01 5.753340000000000121e-01 -2.052100000000000035e-01 2.675250000000000128e-01 -1.767295000000000060e+00 3.788526000000000060e+00 -4.512546999999999642e+00
1.137099999999999916e-02 -9.631999999999999937e-03 9.093849999999999989e-01 -1.609700000000000020e-01 -3.971709999999999963e-01 1.548011000000000026e+00 -6.367100000000000537e-02 9.319220000000000281e-01 2.270220000000000016e-01 2.600080000000000169e-01 -3.368129999999999735e-01 -5.774200000000000443e-01 1.900429999999999897e-01 3.979230000000000267e-01 5.901520000000000099e-01 -1.841510000000000091e-01 -4.508600000000000108e-02 -1.498629999999999962e-01 2.593400000000000150e-01 2.552800000000000069e-01 -6.836400000000000254e-01 -3.662279999999999980e-01 1.241351000000000093e+00 -1.069153000000000020e+00 -1.959569999999999923e-01 1.053990000000000066e-01 -7.869429999999999481e-01 5.603669999999999485e-01 -9.588010000000000144e-01 2.570810000000000040e-01 -3.735169999999999879e-01 -2.488249999999999906e-01 -9.605400000000000049e-02 6.336600000000000565e-02 -9.355459999999999887e-01 -1.685780000000000056e-01
-3.336149999999999949e-01 7.397700000000000109e-02 9.893450000000000299e-01 -2.357640000000000013e-01 -7.667699999999999516e-02 1.221959000000000017e+00 -4.421959999999999780e-01 1.585128000000000092e+00 -6.238400000000000195e-02 7.398709999999999454e-01 6.892239999999999478e-01 -1.324867999999999935e+00 -5.458799999999999764e-02 -2.222599999999999923e-02 -1.492290000000000005e-01 -1.162369999999999931e-01 -6.231910000000000505e-01 -1.337909999999999933e-01 4.287090000000000067e-01 1.153842000000000034e+00 -3.987519999999999953e-01 1.429489999999999927e-01 1.169872999999999941e+00 -5.132940000000000280e-01 1.714279999999999970e-01 -3.108739999999999837e-01 -1.113461999999999952e+00 6.185700000000000226e-02 -9.604850000000000332e-01 1.600519999999999998e-01 -8.046290000000000386e-01 -1.091218999999999939e+00 1.222774999999999945e+00 4.422139999999999960e-01 -1.587371000000000087e+00 1.016480000000000022e-01
-3.241620000000000057e-01 -5.326039999999999663e-01 -1.399600000000000011e-01 6.289000000000000319e-03 1.082930000000000004e-01 -7.836929999999999730e-01 8.145099999999999563e-02 -4.848129999999999939e-01 4.506109999999999838e-01 2.614029999999999965e-01 2.242919999999999914e-01 9.636270000000000113e-01 -2.438589999999999924e-01 -5.229200000000000514e-01 -4.797469999999999790e-01 1.351100000000000079e-01 -2.562110000000000221e-01 5.780359999999999943e-01 -2.253330000000000055e-01 6.120999999999999774e-01 -6.251210000000000377e-01 6.412010000000000209e-01 -1.307676000000000061e+00 5.983519999999999950e-01 3.028669999999999973e-01 1.385319999999999885e-01 1.105954000000000104e+00 -8.594410000000000105e-01 1.279055999999999971e+00 -6.094039999999999457e-01 3.057860000000000023e-01 2.564069999999999960e-01 -6.371679999999999566e-01 -8.131199999999999539e-02 4.855450000000000044e-01 -4.214860000000000273e-01
2.016570000000000029e-01 7.686549999999999772e-01 3.552520000000000122e-01 6.153539999999999566e-01 -1.893761000000000028e+00 1.420247000000000037e+00 -6.765400000000000580e-02 1.233729999999999966e-01 -6.506020000000000136e-01 -1.190017000000000102e+00 -1.615046999999999899e+00 -2.095248000000000221e+00 4.636370000000000213e-01 1.368262000000000089e+00 1.703599000000000085e+00 -1.930300000000000071e-01 5.782429999999999515e-01 1.339480000000000115e-01 5.574000000000000066e-01 -9.231219999999999981e-01 -2.365599999999999994e-02 -1.516200000000000048e-01 2.638110000000000177e-01 -9.141230000000000189e-01 -4.821949999999999847e-01 2.638633000000000006e+00 2.309091000000000005e+00 1.389559999999999962e-01 -8.740280000000000271e-01 -2.367986999999999842e+00 4.007399999999999851e-02 -3.110439999999999872e-01 -4.998119999999999785e-01 6.743699999999999695e-02 -1.239750000000000019e-01 6.292919999999999625e-01
7.214399999999999979e-02 2.048600000000000074e-02 6.759190000000000476e-01 -3.554470000000000129e-01 -2.919010000000000216e-01 4.025440000000000129e-01 1.436488999999999905e+00 -3.091775999999999858e+00 2.990689999999999737e-01 -8.549600000000000255e-02 -4.467940000000000245e-01 -5.721990000000000132e-01 -7.202429999999999666e-01 5.017430000000000501e-01 -7.539899999999999380e-02 -3.863619999999999832e-01 -2.013774999999999871e+00 6.139980000000000437e-01 1.035873999999999961e+00 6.858649999999999469e-01 1.553317000000000059e+00 8.143899999999999750e-02 -2.149039999999999839e+00 -7.327869999999999662e-01 1.069723999999999897e+00 -7.548660000000000370e-01 4.893109999999999959e-01 -6.871390000000000553e-01 3.259681000000000051e+00 -4.026600000000000318e-02 -2.406000000000000152e-02 1.188504000000000005e+00 -2.307860999999999940e+00 -1.436922000000000033e+00 3.091873000000000093e+00 -3.056470000000000020e-01
1.747327999999999992e+00 -5.905569999999999986e-01 2.365448000000000217e+00 3.918650000000000189e-01 2.174639999999999906e-01 3.754865999999999815e+00 -1.344171000000000005e+00 -6.853820000000000467e-01 -1.361169000000000073e+00 1.457849999999999979e-01 -1.276490000000000125e-01 5.910349999999999770e-01 5.314399999999999680e-02 7.632200000000000095e-02 1.883253000000000066e+00 -9.197509999999999852e-01 8.238550000000000040e-01 -2.191692000000000196e+00 4.422059999999999880e-01 -2.481780000000000097e-01 -2.140241000000000060e+00 5.583799999999999875e-02 1.346299999999999927e-02 -2.412710000000000132e-01 -8.555500000000000604e-02 2.148259999999999892e-01 1.096014000000000044e+00 -3.178099999999999814e-01 9.244900000000000340e-02 -4.631390000000000229e-01 8.116099999999999703e-02 7.936100000000000099e-02 -3.005615999999999843e+00 -2.500410000000000132e-01 1.340270000000000072e-01 -2.874880000000000213e-01
3.200700000000000212e-01 1.496078000000000019e+00 5.880999999999999943e-03 -4.040500000000000341e-02 -1.666420000000000123e-01 4.466699999999999837e-02 -4.945000000000000090e-02 -4.934800000000000297e-02 -3.347570000000000268e-01 -8.723100000000000298e-02 3.377700000000000147e-02 1.081929999999999975e-01 -7.218259999999999676e-01 -1.030842000000000036e+00 7.462763999999999953e+00 -4.395149999999999890e-01 -2.570676000000000183e+00 2.319780000000000175e+00 3.958869999999999889e-01 1.528186999999999962e+00 -6.341763000000000261e+00 5.530499999999999999e-02 -6.544200000000000017e-02 1.210400000000000018e-02 2.842350000000000154e-01 -3.001920000000000144e-01 7.760100000000000331e-02 1.496760000000000035e-01 9.192249999999999588e-01 -3.577405000000000168e+00 3.225040000000000129e-01 1.545749999999999902e-01 4.032200000000000228e-01 -1.892500000000000016e-01 5.130099999999999938e-02 -1.802860000000000018e-01
-6.222699999999999759e-02 3.335969999999999769e-01 4.295000000000000207e-02 -1.609659999999999980e-01 1.387248000000000037e+00 7.376850000000000351e-01 2.128800000000000137e-02 -8.864319999999999977e-01 1.164736999999999911e+00 -5.581000000000000023e-03 8.489480000000000359e-01 -1.166477999999999904e+00 8.558710000000000484e-01 7.597199999999999787e-02 -3.927233999999999892e+00 -1.517209999999999948e-01 -3.062000000000000138e-02 7.064679999999999849e-01 2.281789999999999929e-01 8.128900000000000015e-02 -4.384520000000000084e-01 -3.980100000000000304e-02 -8.823499999999999399e-02 -4.789249999999999896e-01 1.251140000000000030e-01 1.413049999999999862e-01 1.157060000000000033e-01 -5.595259999999999678e-01 -4.760909999999999864e-01 3.547973999999999961e+00 -4.043499999999999872e-02 9.851200000000000234e-02 7.919640000000000013e-01 -2.101959999999999940e-01 -1.485492000000000035e+00 -1.096394000000000091e+00
-2.183319999999999983e-01 -2.416750000000000009e-01 1.314097999999999988e+00 -1.484159999999999924e-01 3.020260000000000167e-01 -1.755897000000000041e+00 -1.521822999999999926e+00 2.992785000000000029e+00 8.110220000000000207e-01 4.041259999999999852e-01 1.500229999999999897e-01 1.130797000000000052e+00 -4.222060000000000257e-01 2.352349999999999997e-01 -1.121680999999999928e+00 6.849000000000000053e-03 4.112669999999999937e-01 5.495309999999999917e-01 4.531879999999999797e-01 -7.124770000000000270e-01 -5.742000000000000437e-01 6.572970000000000201e-01 9.338929999999999731e-01 -2.537510000000000043e-01 -7.643700000000000494e-02 2.142030000000000045e-01 -4.540060000000000207e-01 -3.818679999999999852e-01 -6.872319999999999540e-01 3.201550000000000229e-01 -2.739179999999999948e-01 -6.023330000000000073e-01 8.995309999999999695e-01 1.521539999999999893e+00 -2.995713999999999988e+00 -8.655990000000000073e-01
-2.618329999999999824e-01 -8.793309999999999738e-01 2.775429999999999842e-01 -1.870709999999999873e-01 -1.369440000000000102e-01 -6.255800000000000249e-02 -6.452250000000000485e-01 -1.561887999999999943e+00 -6.098100000000000048e-02 5.587149999999999617e-01 1.758329999999999893e-01 -1.452879999999999949e+00 8.848319999999999519e-01 -8.774560000000000137e-01 -2.181804000000000077e+00 -1.257775000000000087e+00 1.934025000000000105e+00 -9.276489999999999458e-01 -8.566200000000000203e-02 -3.248639999999999861e-01 -3.934369999999999812e-01 4.172359999999999958e-01 -3.762800000000000034e-01 4.627900000000000069e-02 1.559760000000000035e-01 2.442280999999999924e+00 1.407875999999999905e+00 1.871160000000000045e-01 1.369720000000000104e-01 4.771600000000000147e-02 6.588289999999999980e-01 -1.339185000000000070e+00 3.184133999999999798e+00 -4.251389999999999891e-01 8.068380000000000551e-01 1.157610000000000028e-01
-5.252219999999999667e-01 -1.236180000000000057e+00 -3.712076000000000153e+00 -2.775469999999999882e-01 -1.326529999999999931e-01 1.473689000000000027e+00 -1.716779999999999973e-01 1.735556000000000099e+00 -3.978940000000000254e-01 7.144000000000000350e-01 -3.147539999999999782e-01 -4.876730000000000231e-01 6.798699999999999743e-01 -4.661599999999999772e-02 4.105840000000000045e-01 2.232899999999999885e-01 -9.299969999999999626e-01 -7.079260000000000552e-01 1.583130000000000093e-01 -7.596150000000000402e-01 -3.744000000000000106e-01 1.046020000000000005e-01 -7.632309999999999928e-01 3.813874000000000208e+00 -8.511170000000000124e-01 1.103472000000000008e+00 1.015722000000000014e+00 -6.550979999999999581e-01 2.919740000000000113e-01 -3.958280000000000132e-01 -1.915000000000000036e-02 2.156168000000000085e+00 -2.419469999999999954e-01 6.193380000000000551e-01 -1.104125000000000023e+00 -3.961259999999999781e-01
1.926339999999999997e-01 -3.211849999999999983e-01 3.377310000000000034e-01 1.146562000000000081e+00 4.587348000000000425e+00 -3.806400000000000061e-02 3.548370000000000135e-01 9.171089999999999520e-01 -5.064769999999999550e-01 -1.953448999999999991e+00 -5.065701999999999927e+00 3.288850000000000051e+00 -4.933300000000000185e-02 5.070679999999999632e-01 1.232569000000000026e+00 6.174239999999999728e-01 5.238699999999999468e-01 -3.441345999999999794e+00 2.890519999999999756e-01 1.458399999999999974e-02 -3.296520000000000006e-01 -7.157360000000000388e-01 4.274595999999999840e+00 -2.699899999999999967e+00 -5.318089999999999762e-01 -1.457950000000000079e-01 -9.779689999999999772e-01 -2.236839999999999939e-01 -1.299079999999999957e-01 1.935000000000000088e-03 9.575999999999999443e-03 -1.024359999999999937e+00 1.238407999999999953e+00 8.639259999999999717e-01 -4.137626000000000026e+00 1.893914000000000097e+00
2.748169999999999780e-01 1.760259999999999936e+00 -6.834259999999999780e-01 2.775489999999999902e-01 -3.448154000000000163e+00 6.813350000000000239e-01 -4.197759999999999825e-01 -1.063290000000000068e-01 7.410769999999999857e-01 -8.839199999999999835e-02 6.181210000000000315e-01 7.077250000000000485e-01 -4.506799999999999695e-02 -8.956169999999999964e-01 4.876070000000000126e-01 6.502900000000000347e-02 4.036665000000000170e+00 2.869909999999999961e+00 3.775740000000000207e-01 5.088540000000000285e-01 -1.737440000000000095e-01 -3.591150000000000175e-01 -7.868030000000000301e-01 1.380306000000000033e+00 -4.025650000000000062e-01 -1.514918999999999905e+00 -3.612473000000000045e+00 -1.361620000000000053e-01 -8.126949999999999452e-01 -6.417859999999999676e-01 4.871860000000000079e-01 7.993350000000000177e-01 -1.400838000000000028e+00 -3.107899999999999899e-02 -1.587169999999999970e-01 -3.556920000000000082e-01
-6.221899999999999653e-02 3.514979999999999771e-01 -3.980199999999999849e-01 1.687219000000000024e+00 -5.496800000000000297e-02 4.308661999999999992e+00 -7.460130000000000372e-01 -2.667070000000000274e-01 -3.185790000000000011e-01 -1.559749999999999970e+00 2.301699999999999927e-02 -4.790642000000000067e+00 5.269679999999999920e-01 -7.861660000000000315e-01 -5.691019999999999968e-01 7.398599999999999621e-02 -1.596349000000000018e+00 2.825293999999999972e+00 5.667320000000000135e-01 2.244980000000000031e-01 -1.543170000000000097e-01 -3.810230000000000006e-01 -1.774030000000000051e-01 -3.561199999999999782e-02 -2.223610000000000031e-01 3.479940000000000255e-01 1.989740000000000120e-01 -2.814269999999999827e-01 2.235550000000000037e-01 7.358540000000000081e-01 1.113300000000000053e-02 1.441637999999999975e+00 -1.727058999999999900e+00 3.867550000000000154e-01 2.693920000000000203e-01 -7.545300000000000618e-02
1.134004999999999930e+00 -8.782860000000000111e-01 -5.566290999999999656e+00 -1.559998999999999914e+00 8.581140000000000434e-01 3.692670999999999815e+00 4.558999999999999858e-02 1.969999999999999909e-04 -2.056950000000000056e+00 -8.562969999999999748e-01 -5.844500000000000250e-01 5.183780000000000054e-01 -3.678629999999999955e-01 -3.525275999999999854e+00 1.875029000000000057e+00 -2.131069999999999909e-01 4.244299999999999740e-01 -1.009041000000000077e+00 6.945940000000000447e-01 5.224499999999999700e-01 1.898438000000000070e+00 8.785340000000000371e-01 9.770820000000000061e-01 -1.600506999999999902e+00 1.778180000000000038e-01 -3.317160000000000108e-01 2.413099999999999967e-02 7.248470000000000191e-01 1.443850000000000133e-01 2.235429999999999917e-01 -3.256229999999999958e-01 -3.241399999999999837e-02 -3.596380000000000132e-01 -3.324989999999999890e-01 2.425485999999999809e+00 2.360237000000000140e+00
-5.818170000000000286e-01 1.678336000000000050e+00 -4.235959999999999726e-01 -2.175020000000000009e-01 6.153600000000000042e-02 -8.406850000000000156e-01 -3.739410000000000234e-01 5.696620000000000017e-01 -1.376299999999999919e-02 5.092800000000000105e-02 -7.141599999999999338e-02 3.121920000000000250e-01 -4.561899999999999844e-01 9.593180000000000041e-01 1.588197999999999999e+00 1.370803999999999911e+00 -2.249390000000000001e+00 -1.396144000000000052e+00 -1.000650000000000012e-01 -1.529540000000000066e-01 -9.421300000000000507e-02 -1.430299999999999905e-01 -4.419399999999999717e-02 8.338560000000000416e-01 4.779729999999999812e-01 -9.344019999999999548e-01 -2.368500000000000050e-01 2.176379999999999981e-01 -6.159099999999999991e-02 8.245890000000000164e-01 -3.720740000000000158e-01 4.868299999999999711e-02 -4.950100000000000056e-01 1.272760000000000002e-01 1.964110000000000023e-01 -5.857600000000000307e-02
2.803950000000000053e-01 3.836490000000000178e-01 -6.626530000000000475e-01 -1.562469999999999970e-01 5.528899999999999926e-01 -8.625099999999999434e-02 -2.134060000000000124e-01 -4.414239999999999831e-01 1.216219999999999940e-01 -1.783279000000000059e+00 -1.445099999999999996e-01 9.134688999999999837e+00 -1.504870000000000096e-01 -3.587359999999999993e-01 6.567299999999999527e-02 3.362479999999999913e-01 -9.347199999999999953e-02 -7.622050000000000214e-01 7.038520000000000332e-01 -1.060559000000000029e+00 -1.736450999999999967e+00 -1.227560000000000040e-01 4.655590000000000006e-01 2.632594999999999796e+00 -2.978620000000000156e-01 -3.080579999999999985e-01 3.423209999999999864e-01 2.197359999999999869e-01 7.083920000000000217e-01 2.339170000000000138e-01 1.892610000000000126e-01 -5.890819999999999945e-01 1.963660000000000128e-01 9.945429999999999549e-01 8.853520000000000278e-01 -9.479623999999999384e+00
8.095480000000000453e-01 -2.000067000000000039e+00 1.010356000000000032e+00 4.234899999999999776e-02 1.955310000000000104e-01 3.510900000000000132e-02 2.546189999999999842e-01 -2.100569999999999937e-01 7.185000000000000275e-01 -5.811299999999999799e-02 4.221329999999999805e-01 5.600159999999999583e-01 -7.260469999999999979e-01 1.677537000000000056e+00 -3.744700000000000112e-02 -3.037400000000000100e-01 2.774289999999999812e-01 -9.570089999999999986e-01 2.404129999999999878e-01 3.698759999999999826e-01 -2.326245999999999814e+00 -5.476060000000000372e-01 -4.105299999999999921e-02 -5.294499999999999901e-02 5.531709999999999683e-01 3.650400000000000172e-02 9.095699999999999619e-02 -3.350379999999999914e+00 1.970026999999999973e+00 -4.693967999999999918e+00 1.127275000000000027e+00 -2.283475999999999839e+00 2.979829999999999979e-01 1.958509999999999973e+00 -4.143839999999999746e-01 5.354695000000000427e+00
-1.871299999999999908e-01 1.035531999999999897e+00 -1.790772999999999948e+00 8.260599999999999887e-02 7.180999999999999883e-03 1.028153000000000095e+00 -3.603699999999999959e-02 7.694399999999999851e-02 -9.394179999999999753e-01 -4.833729999999999971e-01 8.604859999999999731e-01 1.600127000000000077e+00 -7.301659999999999817e-01 1.872888000000000108e+00 1.445279999999999898e-01 -6.882089999999999597e-01 -1.905853000000000019e+00 5.217060000000000031e-01 -1.098370000000000041e-01 4.562599999999999989e-02 -7.501630000000000242e-01 8.621950000000000447e-01 -5.545290000000000497e-01 -1.684271000000000074e+00 4.682810000000000028e-01 -1.549395999999999995e+00 1.035182999999999964e+00 -8.247200000000000364e-02 -6.349999999999999742e-03 -1.002604000000000051e+00 1.293900999999999968e+00 3.736519999999999841e-01 1.686943000000000081e+00 -3.897579999999999933e-01 -2.561809999999999921e-01 1.505879999999999996e-01
-5.493850000000000122e-01 2.080195999999999934e+00 9.351099999999999968e-01 3.906699999999999756e-02 1.020599999999999979e-02 8.972529999999999673e-01 -2.082350000000000034e-01 4.040980000000000127e-01 5.515500000000000264e-02 -4.615299999999999958e-02 -6.119780000000000220e-01 -8.644469999999999654e-01 8.292700000000000071e-02 2.865731999999999946e+00 -1.045720999999999901e+00 -2.385599999999999873e-02 -8.796110000000000317e-01 3.771809999999999885e-01 -3.803259999999999974e-01 -2.977259999999999907e-01 -7.667680000000000051e-01 8.646829999999999794e-01 -1.203850000000000087e+00 -8.481640000000000290e-01 1.504719999999999946e-01 -2.952325000000000088e+00 1.475567999999999991e+00 -3.945599999999999802e-02 -8.670000000000000623e-03 -8.755840000000000289e-01 4.701629999999999976e-01 -1.177969999999999989e-01 6.700089999999999657e-01 -3.599010000000000264e-01 7.117259999999999698e-01 -9.593000000000000832e-03
-1.927790000000000059e-01 1.147409999999999958e-01 -2.151029999999999887e-01 -1.649990000000000068e-01 -1.382009999999999905e-01 -9.240570000000000173e-01 5.015939999999999843e-01 -2.551295999999999786e+00 -2.727010000000000267e-01 3.246859999999999746e-01 -2.139689999999999925e-01 1.120406000000000013e+00 -1.222420000000000034e-01 8.048299999999999899e-02 1.422700000000000006e-02 -1.069200000000000012e-02 -4.452360000000000206e-01 2.812709999999999932e-01 -2.691879999999999828e-01 3.755120000000000124e-01 -7.135610000000000008e-01 8.335399999999999476e-01 -1.834848999999999952e+00 5.230609999999999982e-01 4.350099999999999800e-02 1.156589999999999979e-01 4.758319999999999772e-01 -8.589480000000000448e-01 1.808343000000000034e+00 1.357250000000000123e-01 4.174160000000000093e-01 1.363749999999999962e-01 -7.222570000000000379e-01 -5.018899999999999473e-01 2.552436999999999845e+00 2.971559999999999757e-01
6.629200000000000370e-02 5.226150000000000517e-01 7.695380000000000553e-01 8.204320000000000501e-01 -2.163863999999999788e+00 6.329110000000000014e-01 -6.910399999999999876e-01 1.365132000000000012e+00 -9.380900000000000349e-02 -3.317269999999999941e-01 -6.227460000000000218e-01 -2.583219999999999961e-01 -2.536709999999999798e-01 6.984209999999999585e-01 -5.218530000000000113e-01 -1.781929999999999903e-01 8.348999999999999755e-01 3.562310000000000199e-01 5.994930000000000536e-01 -1.135718000000000005e+00 -4.838439999999999963e-01 3.085060000000000024e-01 8.698000000000000176e-01 -6.630380000000000162e-01 -8.915840000000000432e-01 2.728388999999999953e+00 1.597191000000000027e+00 -5.918699999999999656e-02 -1.177599000000000062e+00 -1.689175000000000093e+00 -8.025500000000000689e-02 -5.533959999999999990e-01 2.945209999999999773e-01 6.909340000000000481e-01 -1.365933000000000064e+00 5.964799999999999963e-02
-5.500749999999999806e-01 1.015981000000000023e+00 -1.742039999999999977e-01 -2.532409999999999939e-01 1.443750000000000033e-01 -7.258860000000000312e-01 -9.047849999999999504e-01 3.667098000000000191e+00 3.487640000000000184e-01 -1.054800000000000008e-02 4.041899999999999937e-01 1.050000000000000044e-04 -1.479199999999999959e-02 2.541629999999999723e-01 -2.349469999999999892e-01 8.824729999999999519e-01 -1.218976000000000059e+00 3.909880000000000022e-01 -1.227489999999999970e-01 -5.060919999999999863e-01 -3.188619999999999788e-01 -1.828000000000000111e-02 -2.314160000000000106e-01 8.016349999999999865e-01 1.026359999999999939e+00 -4.277237000000000400e+00 4.744199999999999806e-02 2.524560000000000137e-01 -1.452579999999999982e-01 7.097700000000000120e-01 -3.058679999999999732e-01 5.044600000000000195e-01 -9.108979999999999855e-01 1.904899999999999996e-02 3.887129999999999752e-01 6.609199999999999797e-02
-5.281420000000000003e-01 -6.859750000000000014e-01 2.239299999999999902e-01 -2.246999999999999865e-03 3.020340000000000247e-01 4.417200000000000293e-02 -1.005420000000000064e-01 2.858829999999999982e-01 6.048799999999999732e-01 7.077309999999999990e-01 8.387379999999999836e-01 -5.235309999999999686e-01 -4.003099999999999992e-01 -9.039129999999999665e-01 -9.753349999999999520e-01 2.777740000000000209e-01 -6.961399999999999533e-02 4.605699999999999794e-01 1.828059999999999963e-01 1.053695999999999966e+00 -3.750629999999999797e-01 1.954990000000000061e-01 3.671360000000000179e-01 4.933790000000000120e-01 3.042989999999999862e-01 -1.731090000000000129e-01 9.801100000000000090e-02 -2.370929999999999982e-01 -1.871800000000000130e-01 -2.744130000000000180e-01 -5.005760000000000209e-01 -5.403799999999999715e-01 7.902900000000000480e-01 1.008020000000000027e-01 -2.873140000000000138e-01 -5.668910000000000338e-01