3.771030000000000104e+00 4.519199999999999662e+00 5.343700000000000117e-01 1.349650000000000016e+00 2.091390000000000082e+00 3.864869999999999806e+00 3.570180000000000131e+00 1.973870000000000013e+00 7.656300000000000328e-01 2.592989999999999906e+00 3.695800000000000196e+00 5.721910000000000274e+00 2.142920000000000158e+00 3.799949999999999939e+00 2.245120000000000005e+00 3.565240000000000187e+00 4.550010000000000332e+00 3.813450000000000006e+00 9.961499999999999799e-01 4.508659999999999890e+00 4.159019999999999939e+00 1.035670000000000091e+00 1.654619999999999980e+00 6.813200000000000367e-01 5.224529999999999674e+00 4.255599999999999938e-01 2.477269999999999861e+00 1.872279999999999944e+00 9.911999999999999977e-02 2.227349999999999941e+00 2.462470000000000159e+00 1.554300000000000126e-01 5.394199999999999662e+00 5.453719999999999679e+00 5.132499999999999840e-01 4.870879999999999654e+00 5.387830000000000119e+00 3.623990000000000045e+00 2.433739999999999792e+00 5.911600000000000188e-01 4.938769999999999882e+00 2.210100000000000120e-01 3.572309999999999874e+00 2.141950000000000021e+00 3.863799999999999901e+00 5.763580000000000148e+00 3.038720000000000088e+00 5.393580000000000041e+00
2.107950000000000212e+00 4.787079999999999558e+00 5.925239999999999618e+00 5.080029999999999824e+00 4.931490000000000151e+00 2.726999999999999980e-01 3.290799999999999836e-01 5.434120000000000061e+00 4.455189999999999984e+00 7.864499999999999824e-01 3.214809999999999945e+00 4.628499999999999837e+00 1.077129999999999921e+00 3.367859999999999854e+00 9.633899999999999686e-01 4.803399999999999892e+00 4.976969999999999672e+00 2.514499999999999957e+00 4.108259999999999579e+00 4.507099999999999995e-01 4.429630000000000400e+00 1.804000000000000048e+00 4.413920000000000066e+00 2.671250000000000124e+00 4.967819999999999681e+00 1.810389999999999944e+00 2.566399999999999793e+00 3.069259999999999877e+00 7.982999999999999818e-02 1.219309999999999894e+00 3.930610000000000159e+00 3.801810000000000134e+00 4.541360000000000063e+00 2.475060000000000038e+00 1.887029999999999985e+00 5.775870000000000282e+00 2.724860000000000060e+00 2.554370000000000029e+00 2.251090000000000035e+00 4.932739999999999903e+00 2.541030000000000122e+00 6.583400000000000363e-01 7.354100000000000081e-01 7.873799999999999688e-01 1.681219999999999937e+00 2.338299999999999823e+00 7.943000000000000060e-01 3.522510000000000030e+00
9.447400000000000242e-01 5.278800000000000381e+00 5.444060000000000343e+00 1.217670000000000030e+00 4.355500000000000149e+00 8.854400000000000048e-01 2.635930000000000106e+00 4.312879999999999825e+00 3.302249999999999908e+00 6.332519999999999705e+00 1.316750000000000087e+00 5.330949999999999633e+00 4.155870000000000175e+00 5.887999999999999901e-01 5.392059999999999853e+00 2.055109999999999992e+00 1.021430000000000060e+00 5.870029999999999859e+00 -1.741199999999999970e-01 3.629840000000000177e+00 4.354269999999999641e+00 5.847629999999999661e+00 5.071430000000000327e+00 6.310730000000000395e+00 4.105019999999999669e+00 3.495140000000000136e+00 5.579790000000000028e+00 6.093309999999999782e+00 2.115139999999999798e+00 2.528690000000000104e+00 1.414709999999999912e+00 2.170690000000000008e+00 3.434009999999999785e+00 2.199329999999999785e+00 6.785490000000000244e+00 3.228979999999999961e+00 3.712309999999999999e+00 5.571729999999999627e+00 3.320799999999999863e-01 1.062119999999999953e+00 1.754429999999999934e+00 1.169180000000000108e+00 5.391090000000000160e+00 6.689989999999999881e+00 3.747040000000000148e+00 6.737169999999999881e+00 2.401800000000000046e-01 1.514600000000000113e-01
