-5.192996967999999924e+01
-4.956124987999999831e+01
-4.451360657000000032e+01
