8.394183592658155391e+00 5.798236396213140686e+00 6.226443085234266483e+00 5.798236396213140686e+00 5.540457440261963740e+00 3.067856103002351897e+00 6.226443085234266483e+00 3.067856103002351897e+00 3.913275023695032662e+00
1.575075870989692461e+01 2.809104109203152122e-01 1.087080344097897289e+01 2.809104109203152122e-01 1.379487708016985970e+01 6.517908048921505326e+00 1.087080344097897289e+01 6.517908048921505326e+00 2.879780587230295552e+01
-1.255460030872268895e+01 1.802423426512082649e+00 -5.162745715061876073e-01 1.802423426512082649e+00 -1.554761598014960633e+01 4.438240589785614532e+00 -5.162745715061876073e-01 4.438240589785614532e+00 -1.918955514104988680e+01
