6.006896836000000128e+00 0.000000000000000000e+00 0.000000000000000000e+00 7.811026000000000080e-02 5.781519143999999777e+00 0.000000000000000000e+00 -6.972364699999999971e-02 1.164020020000000044e-01 5.931428991999999845e+00
5.967196592999999716e+00 0.000000000000000000e+00 0.000000000000000000e+00 -1.301328979999999969e-01 5.969006632000000145e+00 0.000000000000000000e+00 -8.631821400000000422e-02 -3.771622599999999853e-02 5.977090258999999683e+00
