-5.399564877000000251e+01
-5.270470828999999924e+01
