2.454584000000000099e+00 0.000000000000000000e+00 0.000000000000000000e+00 0.000000000000000000e+00 4.270484999999999864e+00 0.000000000000000000e+00 0.000000000000000000e+00 1.205999999999999973e-06 1.465749699999999933e+01
2.659133000000000191e+00 0.000000000000000000e+00 0.000000000000000000e+00 0.000000000000000000e+00 4.626358999999999888e+00 0.000000000000000000e+00 0.000000000000000000e+00 1.190000000000000041e-06 1.567062199999999983e+01
2.505722000000000005e+00 0.000000000000000000e+00 0.000000000000000000e+00 0.000000000000000000e+00 4.359454000000000384e+00 0.000000000000000000e+00 0.000000000000000000e+00 1.725000000000000001e-06 2.141077900000000156e+01
2.556859000000000215e+00 0.000000000000000000e+00 0.000000000000000000e+00 0.000000000000000000e+00 4.448421999999999876e+00 0.000000000000000000e+00 0.000000000000000000e+00 1.552999999999999996e-06 1.966405999999999921e+01
2.710269999999999957e+00 0.000000000000000000e+00 0.000000000000000000e+00 0.000000000000000000e+00 4.715327000000000268e+00 0.000000000000000000e+00 0.000000000000000000e+00 1.670000000000000104e-06 2.242390299999999925e+01
2.556859000000000215e+00 0.000000000000000000e+00 0.000000000000000000e+00 0.000000000000000000e+00 4.448421999999999876e+00 0.000000000000000000e+00 0.000000000000000000e+00 1.394999999999999985e-06 1.766405999999999921e+01
2.556859000000000215e+00 0.000000000000000000e+00 0.000000000000000000e+00 0.000000000000000000e+00 4.448421999999999876e+00 0.000000000000000000e+00 0.000000000000000000e+00 1.038999999999999920e-06 1.316405999999999921e+01
2.454584000000000099e+00 0.000000000000000000e+00 0.000000000000000000e+00 0.000000000000000000e+00 4.270484999999999864e+00 0.000000000000000000e+00 0.000000000000000000e+00 1.576000000000000030e-06 1.915749699999999933e+01
2.505722000000000005e+00 0.000000000000000000e+00 0.000000000000000000e+00 0.000000000000000000e+00 4.359454000000000384e+00 0.000000000000000000e+00 0.000000000000000000e+00 1.483999999999999895e-06 1.841077900000000156e+01
