-4.648099849999999833e+01
-4.947762466999999731e+01
-4.793335459000000043e+01
-4.608070793000000265e+01
-5.049814832999999936e+01
-4.819439073000000207e+01
-4.923719853000000057e+01
-4.504674059999999969e+01
-4.598492771000000090e+01
-5.042196186000000324e+01
-5.081053997000000066e+01
-5.185621482999999898e+01
-4.452976453000000134e+01
-5.181287640000000039e+01
-4.439288703999999797e+01
-4.840414159000000183e+01
-4.636688800999999671e+01
-4.688147433999999691e+01
-4.508532701000000031e+01
-4.510456107000000259e+01
-4.773510346999999854e+01
-4.528764884999999651e+01
-4.727414574000000158e+01
-4.671310473999999857e+01
-4.616295016000000118e+01
-4.648555831000000182e+01
-4.802800150000000201e+01
-5.050967844000000184e+01
-4.594814762000000030e+01
-4.588801706999999652e+01
-4.620414262999999977e+01
-4.528427049999999809e+01
-4.698102559000000156e+01
-5.396100364000000127e+01
-4.908496377000000166e+01
-4.568081312000000338e+01
-4.417678803999999815e+01
-4.823165732999999733e+01
-5.178783977999999877e+01
-5.156352313000000009e+01
-4.642444627999999796e+01
-4.485901411999999766e+01
-4.581928978999999913e+01
