-6.276969999999999494e-01 -8.833889999999999798e-01 1.459832999999999936e+00 4.036980000000000013e-01 3.281800000000000272e-01 -1.780958000000000041e+00 5.010160000000000169e-01 9.657000000000000653e-03 -2.007869999999999933e-01 -3.507199999999999901e-02 3.321210999999999913e+00 8.198220000000000507e-01 3.445329999999999782e-01 -5.822700000000000098e-02 -1.693209999999999993e-01 -1.119998999999999967e+00 -3.892999999999999794e-01 9.340169999999999861e-01 1.275425999999999949e+00 4.473829999999999751e-01 1.189604000000000106e+00 -1.069231000000000043e+00 9.235499999999999821e-01 1.051476999999999995e+00 1.247843999999999953e+00 8.683650000000000535e-01 -1.987770000000000092e-01 3.427109999999999879e-01 -6.525379999999999514e-01 -4.912929999999999797e-01 7.066999999999999671e-02 -1.578399999999999942e-02 5.644900000000000473e-01 3.770660000000000123e-01 -1.511760000000000048e-01 -7.487749999999999684e-01 -8.378099999999999437e-02 3.462999999999999932e-03 -9.024689999999999657e-01 -4.379629999999999912e-01 -1.241244000000000014e+00 -7.800080000000000346e-01 -2.814619999999999900e-01 -5.963330000000000020e-01 -4.419499999999999817e-02 9.832000000000000461e-03 1.048580000000000068e-01 -2.824160000000000004e-01 3.250020000000000131e-01 7.481259999999999577e-01 4.783290000000000042e-01 4.870039999999999925e-01 -6.479200000000000514e-01 9.279800000000000548e-02 2.370780000000000109e-01 -2.713670000000000249e-01 5.298650000000000304e-01 -4.365450000000000164e-01 4.863649999999999918e-01 3.781550000000000189e-01 -8.823200000000000487e-02 7.553200000000000192e-02 1.197990000000000027e-01 -4.313219999999999832e-01 -1.996719999999999884e-01 2.080549999999999899e-01 1.258102000000000054e+00 -1.550105999999999984e+00 5.686800000000000188e-02 -2.227760000000000018e-01 -9.809360000000000301e-01 -3.268800000000000039e-01 1.628560000000000008e-01 6.633120000000000127e-01 -2.221404000000000156e+00 -1.972290000000000099e+00 4.326150000000000273e-01 -1.328489999999999949e+00 1.399456999999999951e+00 -1.639420000000000044e-01 -4.928719999999999768e-01 -8.203019999999999756e-01 8.352810000000000512e-01 7.935010000000000119e-01 1.020273999999999903e+00 -2.764699999999999935e-01 1.358429999999999915e-01 -7.961960000000000148e-01 4.491040000000000032e-01 -2.496299999999999908e-01 2.986719999999999930e-01 -8.349820000000000020e-01 8.324319999999999498e-01 -1.338371999999999895e+00 -7.836140000000000327e-01 5.733819999999999473e-01
-1.975169999999999981e-01 -6.405349999999999655e-01 -6.416999999999999961e-03 -2.488865000000000105e+00 -7.496730000000000338e-01 -6.580580000000000318e-01 -3.389730000000000243e-01 -1.272056999999999993e+00 8.715799999999999936e-02 -1.713469999999999993e-01 -1.868500000000000022e-02 3.350489999999999857e-01 1.138432000000000111e+00 7.371879999999999544e-01 9.709250000000000380e-01 -7.844459999999999766e-01 -5.175969999999999738e-01 -1.301454000000000111e+00 2.254269999999999885e-01 2.452199999999999866e-02 1.090921000000000030e+00 -8.781769999999999854e-01 -3.730289999999999995e-01 7.755389999999999784e-01 -8.392290000000000028e-01 5.089439999999999520e-01 -1.407591000000000037e+00 -1.043368999999999991e+00 1.388694000000000095e+00 -5.450319999999999609e-01 -7.088609999999999634e-01 -1.136824999999999974e+00 -1.267234999999999889e+00 3.744859999999999856e-01 6.035190000000000277e-01 1.929211000000000009e+00 3.116380000000000261e-01 -8.287930000000000019e-01 -5.560850000000000515e-01 4.569559999999999733e-01 1.119004000000000110e+00 -2.177060000000000106e-01 2.495300000000000018e-01 -1.987299999999999900e-01 4.280180000000000096e-01 -1.617669999999999941e-01 -1.000459999999999960e-01 -4.192000000000000171e-01 -7.177899999999999558e-02 -5.161080000000000112e-01 -7.409899999999999820e-02 3.767789999999999750e-01 8.176670000000000327e-01 -3.958610000000000184e-01 1.428347000000000033e+00 1.342516999999999960e+00 4.250700000000000034e-01 -9.654120000000000479e-01 -2.726779999999999760e-01 -1.657510999999999957e+00 1.126000000000000056e-01 -1.213840000000000030e+00 -6.267639999999999878e-01 -1.345717000000000052e+00 -1.308443000000000023e+00 7.206600000000000505e-02 1.481220000000000037e-01 3.593400000000000066e-02 1.002167000000000030e+00 -8.175300000000000622e-02 -4.045190000000000174e-01 8.477609999999999868e-01 -1.126198000000000032e+00 -5.613869999999999694e-01 -1.766810999999999909e+00 1.501250000000000084e-01 1.233508000000000049e+00 -2.064739999999999909e-01 1.355191000000000034e+00 -8.292190000000000394e-01 1.625399999999999956e+00 1.574550000000000116e-01 -3.475369999999999848e-01 2.000299999999999995e-02 1.900787000000000004e+00 1.108743999999999952e+00 -2.654009999999999980e-01 6.859600000000000419e-02 1.232102999999999948e+00 1.002529999999999921e+00 4.177899999999999670e-02 6.199609999999999843e-01 7.056149999999999922e-01 2.707158000000000175e+00 5.173980000000000246e-01 5.426700000000000274e-02
6.428120000000000500e-01 1.672309999999999908e-01 -9.171000000000000332e-03 -3.743070000000000008e-01 6.960420000000000496e-01 1.867840000000000056e-01 -8.943600000000000161e-02 -6.899189999999999490e-01 -3.153340000000000032e-01 -1.570473999999999926e+00 -1.597407999999999939e+00 6.417580000000000506e-01 -1.254864999999999897e+00 9.637620000000000076e-01 -8.705349999999999477e-01 -6.559089999999999643e-01 -9.778599999999999792e-02 2.463789999999999869e-01 1.474841999999999986e+00 5.684559999999999613e-01 3.150580000000000047e-01 3.620970000000000022e-01 -1.393590000000000106e-01 2.797900000000000040e-02 7.302119999999999722e-01 9.122399999999999953e-02 -1.951459000000000055e+00 4.231380000000000141e-01 9.199300000000000255e-01 -2.619890000000000274e-01 -6.931190000000000406e-01 -1.701268000000000002e+00 4.518920000000000159e-01 4.862929999999999753e-01 6.966059999999999475e-01 3.997080000000000077e-01 7.190459999999999630e-01 5.553529999999999855e-01 1.070451000000000041e+00 3.597639999999999727e-01 1.379807999999999923e+00 -2.298897000000000190e+00 -1.056465999999999905e+00 3.505409999999999915e-01 -1.770940000000000014e-01 -1.181424000000000030e+00 -1.126258999999999899e+00 9.556120000000000170e-01 5.447990000000000332e-01 1.968640000000000112e-01 2.677880000000000260e-01 -3.647659999999999791e-01 1.892929999999999890e-01 1.087256000000000000e+00 5.942770000000000552e-01 9.777489999999999792e-01 -8.451969999999999761e-01 -4.144780000000000131e-01 -7.268620000000000081e-01 -1.397529999999999883e-01 3.892419999999999769e-01 -4.712189999999999990e-01 1.106043000000000109e+00 9.420770000000000532e-01 2.538509999999999933e-01 2.871580000000000243e-01 -6.084709999999999841e-01 6.123530000000000362e-01 1.934889999999999943e-01 6.279420000000000002e-01 1.366269999999999984e-01 -4.431439999999999824e-01 1.488388000000000044e+00 6.051509999999999945e-01 3.738639999999999741e-01 -2.201970000000000038e-01 -2.271920000000000051e-01 4.296429999999999971e-01 7.799300000000000677e-02 -5.999510000000000121e-01 -1.164412000000000003e+00 -7.711379999999999901e-01 -2.848140000000000116e-01 -3.949699999999999739e-02 2.969899999999999970e-02 -1.541598000000000024e+00 1.587817000000000034e+00 -2.680290000000000172e-01 -7.851979999999999515e-01 -1.007115999999999900e+00 2.465630000000000044e-01 8.685509999999999620e-01 6.923909999999999787e-01 -6.161039999999999850e-01 -2.405619999999999981e-01 -7.974719999999999587e-01
6.729450000000000154e-01 -2.775400000000000089e-02 -2.939061999999999841e+00 4.453119999999999856e-01 -3.036800000000000055e-01 3.145129999999999870e-01 -6.608249999999999957e-01 -6.993299999999999517e-02 -2.406510000000000038e-01 5.975930000000000408e-01 1.182492000000000099e+00 -3.200279999999999792e-01 3.310270000000000157e-01 2.202490000000000003e-01 1.656519999999999937e-01 2.100700000000000067e-01 4.077970000000000206e-01 -2.370539999999999869e-01 -1.128019999999999995e-01 2.271199999999999955e-02 7.070260000000000433e-01 -8.424430000000000529e-01 1.082292999999999950e+00 -7.956910000000000371e-01 -1.953439999999999899e-01 -1.362033999999999967e+00 -2.693369999999999931e-01 -1.437060000000000004e-01 -1.842999999999999847e-02 -1.973503000000000007e+00 2.387869999999999993e-01 -6.232860000000000067e-01 5.277969999999999606e-01 -2.747589999999999755e-01 -4.948710000000000053e-01 -1.975850000000000106e-01 2.117090000000000083e-01 -1.339183000000000012e+00 -6.101990000000000469e-01 1.330999999999999935e-03 -2.089320000000000066e-01 2.314890000000000003e-01 7.966399999999999870e-02 -3.848170000000000202e-01 1.538199999999999984e-02 1.136439999999999895e+00 1.349970000000000059e-01 9.107400000000000218e-02 -1.209314000000000000e+00 -1.623809000000000058e+00 3.099905000000000133e+00 -3.211649999999999783e-01 6.532189999999999941e-01 -1.343070000000000097e-01 1.298110000000000097e-01 2.672550000000000203e-01 3.792119999999999935e-01 -4.475729999999999986e-01 -2.241869999999999974e-01 4.017300000000000038e-02 1.127807999999999922e+00 1.399199999999999888e-01 2.435315000000000119e+00 -8.899600000000000566e-02 3.009740000000000193e-01 6.390919999999999934e-01 -5.949499999999999927e-02 1.666681999999999997e+00 -4.105050000000000088e-01 1.721729999999999927e-01 6.329740000000000366e-01 -8.834370000000000278e-01 -1.057358999999999938e+00 -5.713399999999999729e-02 6.256080000000000529e-01 1.111688000000000009e+00 -4.641200000000000186e-02 -2.730389999999999762e-01 -4.109499999999999958e-02 8.547699999999999743e-02 -7.215100000000000680e-02 -1.152009000000000061e+00 -6.197489999999999943e-01 -1.831190000000000095e+00 -1.468150000000000011e-01 1.303219999999999934e-01 3.130939999999999834e-01 5.436689999999999579e-01 -4.215969999999999995e-01 1.023310000000000053e-01 -1.027333000000000052e+00 -6.114800000000000096e-02 5.852600000000000163e-02 7.710059999999999691e-01 9.595909999999999718e-01 1.441550000000000109e+00
-7.060210000000000097e-01 5.421800000000000230e-02 -3.097790000000000266e-01 -6.220830000000000526e-01 -6.766980000000000217e-01 9.465500000000000302e-02 3.089106000000000130e+00 -3.921680000000000166e-01 2.464452999999999783e+00 1.293809999999999960e-01 1.620299999999999865e-02 5.076800000000000201e-01 1.153900000000000065e-01 -3.353500000000000231e-02 3.242090000000000249e-01 9.729799999999999560e-02 -5.282350000000000101e-01 7.743579999999999908e-01 6.987449999999999495e-01 -1.489502000000000104e+00 -1.341598999999999986e+00 5.019510000000000360e-01 -2.353010999999999964e+00 -1.168612999999999902e+00 -1.385990000000000055e+00 -1.608169999999999877e-01 5.655379999999999852e-01 -3.418610000000000260e-01 -1.073589999999999961e-01 4.669240000000000057e-01 1.119199000000000055e+00 3.301689999999999903e-01 3.636190000000000255e-01 -1.569260000000000099e-01 -2.778800000000000020e-02 1.873920000000000030e-01 -1.924334999999999907e+00 4.667149999999999910e-01 -6.550660000000000371e-01 7.319179999999999575e-01 -2.708389999999999964e-01 -4.226199999999999957e-01 -5.188399999999999956e-02 -1.508089999999999986e-01 6.974420000000000064e-01 2.256000000000000019e-02 1.167832999999999899e+00 1.085466000000000042e+00 6.539479999999999738e-01 -9.825530000000000097e-01 1.756220000000000003e-01 -1.587175000000000002e+00 -3.233030000000000070e-01 -2.855354000000000170e+00 -4.400419999999999887e-01 -7.115240000000000453e-01 -8.191190000000000415e-01 1.188555999999999946e+00 4.998710000000000098e-01 5.295860000000000012e-01 -1.877099999999999949e-02 -4.758000000000000076e-03 -2.745000000000000044e-03 5.360169999999999657e-01 -4.502050000000000218e-01 -1.546760000000000079e-01 1.096030000000000060e-01 4.387940000000000174e-01 -3.153889999999999749e-01 4.650079999999999769e-01 7.131399999999999961e-01 -3.342959999999999821e-01 2.908270000000000022e-01 1.274250000000000105e+00 -5.286140000000000283e-01 -7.106919999999999904e-01 1.793968000000000007e+00 -8.833159999999999901e-01 9.344550000000000356e-01 2.848890000000000033e-01 5.317950000000000177e-01 -1.200174000000000074e+00 1.706799999999999984e-01 3.416049999999999920e-01 2.788699999999999860e-02 -2.173480000000000134e-01 2.111437000000000008e+00 -7.416920000000000179e-01 9.675789999999999669e-01 -1.978639000000000037e+00 -8.138520000000000199e-01 -3.421339999999999937e-01 3.861589999999999745e-01 -1.035299999999999936e-02 1.044276999999999900e+00 1.618870000000000031e-01
1.673469999999999958e-01 -3.252300000000000191e-01 7.660000000000000142e-02 4.456789999999999918e-01 -2.547420000000000240e-01 -2.642499999999999849e-01 5.499469999999999636e-01 1.544877000000000056e+00 7.181950000000000278e-01 1.293131000000000030e+00 -2.928376000000000090e+00 4.905149999999999788e-01 -2.584049999999999958e-01 2.438269999999999882e-01 -1.592457999999999929e+00 8.754000000000000670e-02 1.196317999999999993e+00 -1.780683999999999934e+00 -8.080680000000000085e-01 3.098960000000000048e-01 -3.825709999999999944e-01 1.675612000000000101e+00 3.344289999999999763e-01 -1.660223999999999922e+00 8.137250000000000316e-01 -2.121059999999999890e-01 -2.693699999999999914e-02 -1.033079999999999971e-01 4.525250000000000106e-01 -6.022579999999999600e-01 5.746160000000000156e-01 -3.343900000000000344e-02 1.085482999999999976e+00 3.567100000000000271e-01 3.760410000000000141e-01 1.505370000000000041e-01 -2.572322000000000219e+00 -2.105329999999999979e-01 2.060883000000000020e+00 2.072353000000000112e+00 -2.578478000000000048e+00 -1.339693999999999940e+00 9.970700000000000396e-02 -4.345479999999999898e-01 6.729370000000000074e-01 -6.799589999999999801e-01 6.448150000000000270e-01 1.184808000000000083e+00 -3.939940000000000109e-01 -1.914420000000000011e-01 4.044349999999999890e-01 -3.374300000000000216e-02 3.218530000000000002e-01 -5.831589999999999829e-01 -3.909275000000000055e+00 -2.073135000000000172e+00 1.136803000000000008e+00 9.634859999999999536e-01 -3.185230000000000006e-01 7.298529999999999740e-01 3.266903000000000112e+00 2.291932000000000080e+00 -2.252629999999999910e-01 -3.402129999999999876e-01 5.976270000000000193e-01 -4.373389999999999778e-01 7.728359999999999674e-01 -1.260749999999999926e-01 2.058780000000000054e-01 6.309510000000000396e-01 3.757630000000000137e-01 -7.085460000000000091e-01 -2.257544999999999913e+00 -6.093560000000000088e-01 -3.041300000000000114e-01 -8.107990000000000475e-01 1.410425999999999958e+00 7.886729999999999574e-01 -9.030179999999999874e-01 1.496358999999999995e+00 -7.937469999999999803e-01 8.281739999999999657e-01 -2.590700000000000225e-01 -7.084129999999999594e-01 -2.284489000000000214e+00 2.618340000000000112e-01 9.821800000000000530e-01 1.149880999999999931e+00 -9.928660000000000263e-01 5.432200000000000223e-02 -3.425119999999999831e-01 2.233719999999999872e-01 3.072170000000000178e-01 -5.094900000000000123e-02 -5.339749999999999774e-01 3.603560000000000096e-01
2.482840000000000047e-01 -1.673439999999999928e-01 -2.600190000000000001e-01 5.573740000000000361e-01 -9.074699999999999434e-02 -2.624199999999999866e-01 -4.748319999999999763e-01 1.080200000000000084e-02 4.533909999999999885e-01 1.670699999999999963e-01 -2.145940000000000070e-01 -2.120999999999999969e-02 -1.673060000000000103e-01 7.143650000000000277e-01 2.177830000000000044e-01 -2.217210000000000014e-01 2.488272999999999957e+00 4.809899999999999731e-01 1.562459999999999960e-01 1.963070000000000093e-01 2.840739999999999932e-01 -4.877219999999999889e-01 -1.516472000000000042e+00 -8.366109999999999935e-01 -1.039417999999999953e+00 -1.095175000000000010e+00 2.743140000000000023e-01 4.876800000000000024e-01 1.143202000000000051e+00 -7.861359999999999459e-01 -1.230290000000000106e+00 3.128650000000000042e-01 -4.403739999999999877e-01 2.598999999999999921e-02 -1.855410000000000115e-01 9.820800000000000363e-02 2.070140000000000036e-01 -5.656290000000000484e-01 -6.180719999999999548e-01 5.972690000000000499e-01 1.421930000000000138e-01 -1.099568000000000101e+00 1.692901999999999907e+00 1.060637999999999970e+00 -1.135359999999999980e-01 -4.125280000000000058e-01 1.342699999999999970e-02 -2.719420000000000170e-01 1.728679999999999939e-01 -3.909969999999999835e-01 2.902509999999999812e-01 1.093750000000000000e-01 -1.094679999999999959e-01 -2.053230000000000055e-01 8.559919999999999751e-01 8.901699999999999890e-02 3.209999999999999963e-04 -8.946000000000000826e-03 -1.240558999999999967e+00 4.470259999999999789e-01 -3.973470000000000057e-01 3.721070000000000211e-01 1.636319999999999997e-01 6.811850000000000405e-01 -4.935189999999999855e-01 1.201923000000000075e+00 1.129143999999999926e+00 -3.585269999999999846e-01 1.235980000000000079e+00 -1.246092999999999895e+00 -6.308510000000000506e-01 5.965989999999999904e-01 -1.457140000000000102e-01 -1.920540000000000025e-01 -3.984900000000000247e-02 -2.120360000000000023e-01 2.181777999999999995e+00 -9.521030000000000326e-01 -4.874169999999999892e-01 -9.895730000000000359e-01 2.212069999999999870e-01 -1.727480000000000127e-01 2.863950000000000107e-01 -2.393639999999999934e-01 1.071860000000000035e+00 -6.682780000000000387e-01 -1.188799999999999996e-01 -1.988790000000000002e-01 1.685200000000000031e-01 2.333520000000000039e-01 -9.344660000000000188e-01 4.478139999999999898e-01 2.624870000000000259e-01 -3.227909999999999946e-01 -7.183749999999999858e-01 -1.961299999999999988e-01
2.644190000000000151e-01 -4.013920000000000265e-01 7.556300000000000239e-01 2.623039999999999816e-01 -5.084089999999999998e-01 -1.314311999999999925e+00 -6.393410000000000482e-01 7.555699999999999639e-01 -2.399409999999999876e-01 2.117890000000000050e-01 2.455099999999999991e-02 6.834199999999999997e-02 -1.177267000000000063e+00 -4.075070000000000081e-01 -1.240202999999999944e+00 3.492669999999999941e-01 -1.911745000000000028e+00 -5.764329999999999732e-01 -9.811349999999999794e-01 1.173216000000000037e+00 -2.493849999999999956e-01 -4.720909999999999829e-01 -1.946539999999999937e-01 -4.030989999999999851e-01 2.429969999999999908e-01 9.328269999999999618e-01 5.032060000000000421e-01 -5.483519999999999506e-01 1.239236000000000004e+00 -1.457221000000000100e+00 -7.119469999999999965e-01 -1.762759999999999883e-01 1.986130000000000118e-01 -6.164300000000000335e-01 -6.577800000000000313e-02 -7.601919999999999789e-01 -4.247239999999999904e-01 -1.757142999999999899e+00 1.558923000000000059e+00 -4.499999999999999877e-04 2.335059999999999913e-01 -1.625455000000000094e+00 9.428100000000000369e-01 -6.485899999999999999e-01 -6.196700000000000125e-02 -1.383361999999999981e+00 -7.674999999999999878e-02 9.674080000000000457e-01 2.675150000000000028e-01 2.113865000000000105e+00 -3.589519999999999933e-01 -3.555440000000000267e-01 -1.496348999999999929e+00 -2.420529999999999848e+00 -1.771929999999999894e-01 5.198899999999999633e-01 4.124099999999999988e-02 1.406196999999999919e+00 5.174159999999999870e-01 -1.400357999999999992e+00 6.708169999999999966e-01 -2.782629999999999826e-01 -5.060980000000000478e-01 3.347890000000000033e-01 7.674739999999999895e-01 1.427761000000000058e+00 1.039803000000000033e+00 1.111331999999999987e+00 8.050359999999999738e-01 1.251249999999999862e-01 1.380341000000000040e+00 1.348341000000000012e+00 -6.260029999999999761e-01 5.015009999999999746e-01 1.952000000000000124e-01 4.107999999999999673e-03 1.667939000000000060e+00 1.585479000000000083e+00 1.079660000000000064e+00 -2.485205000000000108e+00 7.247029999999999861e-01 -4.508170000000000233e-01 6.561899999999999678e-02 3.717199999999999949e-01 1.611410000000000065e-01 -1.376350000000000073e-01 4.209680000000000089e-01 4.301189999999999736e-01 7.599899999999999711e-02 -5.573299999999999782e-02 1.066934999999999967e+00 -8.566730000000000178e-01 2.357434000000000029e+00 -2.951389999999999847e-01 -1.677913999999999906e+00 -6.601249999999999618e-01
-1.904530000000000112e-01 1.256852000000000080e+00 -1.497860000000000025e-01 -2.974787000000000070e+00 1.069965999999999973e+00 -6.176040000000000418e-01 2.383859999999999868e-01 -1.097680000000000045e-01 -1.900320000000000065e-01 6.639239999999999586e-01 7.424800000000000288e-01 -5.371599999999999986e-02 6.999680000000000346e-01 -4.403150000000000119e-01 3.733500000000000152e-01 -4.000750000000000139e-01 5.133210000000000273e-01 -2.368326999999999849e+00 -1.183184000000000013e+00 4.585960000000000036e-01 -5.744489999999999874e-01 -2.217799999999999980e-02 -3.459479999999999777e-01 5.305199999999999916e-01 -1.013499999999999991e-02 -3.208059999999999801e-01 -8.747719999999999940e-01 -1.093828000000000022e+00 -2.823586000000000151e+00 8.762379999999999614e-01 -1.971610000000000029e-01 2.966610000000000080e-01 -1.092690000000000050e-01 -4.589340000000000086e-01 -6.121499999999999719e-01 1.213279999999999914e+00 -6.270710000000000450e-01 9.355949999999999545e-01 1.490602999999999900e+00 -7.790939999999999532e-01 -7.386700000000000488e-01 1.959289999999999921e-01 -1.902369999999999894e-01 -3.808670000000000111e-01 3.821530000000000205e-01 7.136350000000000193e-01 1.874730999999999925e+00 -1.822254000000000040e+00 -4.115170000000000217e-01 -7.268280000000000296e-01 -9.492699999999999749e-02 4.988399999999999779e-02 1.277862999999999971e+00 4.142060000000000186e-01 -1.489910000000000123e-01 -2.395750000000000102e-01 -2.381649999999999878e-01 2.147689999999999877e+00 6.119470000000000187e-01 4.363199999999999856e-01 -3.881700000000000150e-01 3.672690000000000121e-01 -1.303900000000000059e-01 2.400885000000000158e+00 7.731780000000000319e-01 3.249079999999999746e-01 3.309159999999999879e-01 -1.190940000000000110e+00 -3.131909999999999972e-01 9.411500000000000421e-01 -3.459249999999999825e-01 -5.407140000000000279e-01 -3.630039999999999933e-01 -1.281733999999999929e+00 -1.807228000000000057e+00 -1.183089999999999975e-01 -5.428929999999999589e-01 -2.710900000000000115e-02 -4.059710000000000263e-01 2.243819999999999981e-01 2.444199999999999984e-01 6.649900000000000255e-02 2.471750000000000058e-01 1.408188999999999913e+00 -8.495219999999999994e-01 6.461000000000000076e-02 4.321470000000000034e-01 6.412780000000000147e-01 1.430019999999999902e-01 1.201443999999999956e+00 2.530999999999999917e-02 -1.338689999999999880e-01 3.255999999999999867e-02 1.893095999999999890e+00 -6.237559999999999771e-01 3.556679999999999842e-01
1.267979999999999940e-01 9.087530000000000330e-01 -1.149710000000000037e-01 8.949600000000000610e-02 -4.264270000000000005e-01 2.374920000000000087e-01 5.214349999999999818e-01 -1.122449999999999976e-01 1.239200000000000024e-02 4.083400000000000224e-02 -6.727239999999999887e-01 -1.561053999999999942e+00 -9.959770000000000012e-01 -1.344171999999999922e+00 1.183057999999999943e+00 4.537370000000000014e-01 -5.060909999999999576e-01 -5.700359999999999872e-01 9.906399999999999650e-01 3.074049999999999838e-01 1.360000000000000098e-01 -1.926229999999999887e-01 -2.408510000000000095e-01 4.212509999999999866e-01 -6.691900000000000626e-02 -2.228080000000000060e-01 1.068897999999999904e+00 -3.866260000000000252e-01 -9.513000000000000622e-02 -9.619149999999999645e-01 -1.091726999999999892e+00 -1.110613000000000072e+00 -1.945050000000000112e-01 -1.450450000000000073e-01 -3.505980000000000207e-01 7.819209999999999772e-01 4.896639999999999882e-01 -5.846670000000000478e-01 3.431250000000000133e-01 -8.645199999999999552e-01 7.385479999999999823e-01 -1.719199999999999895e-02 -6.955699999999999383e-02 2.354789999999999939e-01 1.523919999999999997e-01 3.476170000000000093e-01 -2.209770000000000068e-01 8.722729999999999650e-01 3.070590000000000264e-01 -9.619400000000000173e-02 -3.146300000000000208e-01 -2.784800000000000053e-01 -1.135509999999999992e-01 3.349829999999999752e-01 9.186999999999999333e-02 -2.228350000000000053e-01 2.575319999999999832e-01 -8.025970000000000049e-01 9.006140000000000256e-01 -8.290129999999999999e-01 1.357612999999999959e+00 6.110299999999999759e-02 5.213189999999999769e-01 1.986519999999999953e-01 6.462130000000000374e-01 -9.170340000000000158e-01 -8.595699999999999452e-01 9.168709999999999916e-01 -1.698880000000000112e-01 -6.810140000000000082e-01 1.371469999999999967e+00 2.690770000000000106e-01 -9.436309999999999976e-01 6.174150000000000471e-01 -1.040785999999999989e+00 4.814220000000000166e-01 -1.126978000000000035e+00 5.120299999999999851e-02 1.638355000000000006e+00 1.355202999999999935e+00 1.220506000000000091e+00 -3.027949999999999808e-01 4.152600000000000041e-02 -1.968870000000000064e-01 1.228733999999999993e+00 7.662280000000000202e-01 -9.969470000000000276e-01 2.430219999999999880e-01 5.085509999999999753e-01 1.193850999999999996e+00 -3.892930000000000001e-01 -1.451624999999999943e+00 -8.388269999999999893e-01 -5.365760000000000529e-01 -4.768930000000000113e-01 -3.335919999999999996e-01
1.600417999999999896e+00 2.033889999999999865e-01 8.776249999999999885e-01 -2.304829999999999934e-01 7.234749999999999792e-01 7.261700000000000099e-02 -6.249780000000000335e-01 3.797079999999999900e-01 4.284399999999999875e-01 1.908676000000000039e+00 -8.981729999999999992e-01 1.634889000000000037e+00 1.938989999999999880e-01 -1.390859999999999874e-01 4.891159999999999952e-01 -2.691856000000000027e+00 -1.534099999999999908e-01 8.485930000000000417e-01 2.878209999999999935e-01 -6.193239999999999856e-01 -8.281560000000000032e-01 -4.156810000000000227e-01 2.119300000000000003e-02 -1.011060000000000014e-01 -5.693800000000000250e-02 6.779579999999999496e-01 -6.682150000000000034e-01 6.145070000000000254e-01 1.063329999999999970e-01 -1.117510000000000031e-01 1.398082000000000047e+00 -2.418785999999999881e+00 -5.406800000000000495e-01 -2.105120000000000047e-01 -6.099199999999999761e-02 5.115370000000000195e-01 2.069300000000000028e-01 -5.994599999999999929e-02 1.982990000000000030e-01 -1.364209999999999867e-01 -6.312820000000000098e-01 6.401700000000000446e-02 -3.029560000000000031e-01 5.126100000000000101e-02 -3.347100000000000075e-01 5.395710000000000228e-01 3.102006999999999959e+00 -6.459880000000000067e-01 1.636020000000000030e+00 -1.935076000000000018e+00 7.847650000000000459e-01 -2.510689999999999866e-01 -6.008970000000000145e-01 6.063999999999999946e-03 -1.607291999999999943e+00 -4.636509999999999798e-01 -3.210549999999999793e-01 -1.694120000000000070e+00 -2.348466000000000165e+00 -4.363890000000000269e-01 -1.654909999999999992e-01 3.010959999999999859e+00 -9.795110000000000205e-01 1.051444999999999963e+00 -1.578173000000000048e+00 -4.327079999999999815e-01 4.193769999999999998e-01 -1.704080000000000039e-01 -4.254200000000000342e-02 4.256920000000000148e-01 4.683099999999999763e-02 -2.211299999999999932e-01 -1.595550999999999942e+00 3.603729999999999989e-01 -1.951019999999999976e+00 2.310814000000000146e+00 7.161299999999999610e-02 1.106509999999999994e-01 -7.517979999999999663e-01 1.365534000000000026e+00 4.238900000000000307e-02 4.488969999999999905e-01 -9.943000000000000449e-02 1.712088000000000054e+00 -3.792429999999999968e-01 1.824178000000000077e+00 -4.112919999999999909e-01 -8.646439999999999682e-01 2.257579999999999865e-01 2.622689999999999744e-01 -1.651110000000000078e+00 5.185250000000000137e-01 5.906010000000000426e-01 5.879929999999999879e-01 -5.119970000000000354e-01 -6.077080000000000259e-01
9.444500000000000117e-02 1.931609999999999994e-01 1.370506000000000002e+00 8.920209999999999528e-01 9.467910000000000492e-01 -1.222707999999999906e+00 -4.218609999999999860e-01 -1.045557000000000070e+00 7.796899999999999664e-02 -3.353929999999999967e-01 1.040319999999999911e+00 4.514179999999999859e-01 1.515072999999999892e+00 7.305530000000000079e-01 8.359330000000000371e-01 -6.880739999999999634e-01 -4.016009999999999858e-01 -1.452080000000000037e-01 -7.364770000000000483e-01 -1.679229999999999889e-01 -4.150000000000000043e-04 -3.030849999999999933e-01 -1.203160000000000063e-01 3.499459999999999793e-01 -3.815239999999999743e-01 1.146536999999999917e+00 4.407469999999999999e-01 -4.965820000000000234e-01 1.247749999999999915e+00 -6.129710000000000436e-01 -3.289079999999999782e-01 4.626460000000000017e-01 9.144189999999999818e-01 3.607940000000000036e-01 -3.616280000000000050e-01 1.940884999999999971e+00 9.691670000000000007e-01 2.206599999999999881e-02 -5.706200000000000161e-01 -6.422020000000000506e-01 -4.060349999999999793e-01 8.704520000000000035e-01 2.799349999999999894e-01 -4.809060000000000001e-01 -9.389400000000000523e-02 -3.666497999999999813e+00 -9.577250000000000485e-01 3.406296000000000213e+00 3.779129999999999989e-01 -8.292900000000000271e-02 -1.087010000000000060e-01 1.950830000000000064e-01 -3.082659999999999845e-01 -1.684757000000000060e+00 -1.541250000000000120e-01 -1.017919999999999936e+00 2.713090000000000224e-01 7.818400000000000349e-02 1.060748000000000024e+00 1.348306000000000004e+00 2.712280000000000246e-01 9.541700000000000181e-02 -7.343210000000000015e-01 1.071574999999999944e+00 -2.190269999999999995e-01 8.772480000000000278e-01 3.315586000000000144e+00 1.235209999999999919e+00 -4.554885999999999768e+00 8.522260000000000391e-01 4.601089999999999902e-01 -3.317100000000000048e-01 -4.815490000000000048e-01 1.632069999999999910e-01 3.754819999999999824e-01 3.553129999999999900e-01 -1.210941999999999963e+00 -1.004375000000000018e+00 1.296688999999999981e+00 1.085387000000000102e+00 -1.586295000000000011e+00 -1.596135000000000081e+00 -1.618006000000000055e+00 9.958650000000000002e-01 2.288840000000000041e-01 -9.287330000000000307e-01 -1.366600999999999955e+00 -7.118050000000000210e-01 -3.938019999999999854e-01 4.337520000000000264e-01 -9.785209999999999742e-01 -9.997599999999999543e-02 -5.636860000000000204e-01 -2.313780000000000003e-01 -6.861000000000000432e-02 -3.793839999999999990e-01