7.931200000000000472e-01 4.565070000000000405e+00 3.276289999999999925e+00 4.987020000000000231e+00 5.846070000000000100e+00 3.020579999999999821e+00 2.518959999999999866e+00 5.706990000000000229e+00 1.974439999999999973e+00 5.459909999999999819e+00 3.334000000000000075e+00 4.733259999999999579e+00 5.578899999999999970e+00 1.554920000000000080e+00 2.791160000000000085e+00 9.948900000000000521e-01 1.248739999999999961e+00 4.595340000000000202e+00 6.271740000000000315e+00 5.899639999999999773e+00 5.315809999999999924e+00 3.914940000000000087e+00 2.217589999999999950e+00 3.521220000000000017e+00 6.220270000000000188e+00 3.207530000000000214e+00 1.328549999999999898e+00 4.000250000000000306e+00 3.878880000000000106e+00 1.343210000000000015e+00 6.256240000000000023e+00 5.693859999999999921e+00 1.288189999999999946e+00 2.967089999999999783e+00 4.879229999999999734e+00 4.787099999999999689e+00 1.398400000000000087e+00 1.540529999999999955e+00 5.645400000000000418e-01 3.987229999999999830e+00 1.117990000000000039e+00 8.121899999999999675e-01 3.004119999999999902e+00 2.001320000000000210e+00 5.375009999999999621e+00 1.716099999999999959e+00 3.910350000000000215e+00 1.738899999999999890e-01
7.102000000000000535e-01 5.533559999999999590e+00 3.679860000000000131e+00 2.579839999999999911e+00 4.596339999999999648e+00 2.412170000000000147e+00 4.024519999999999875e+00 -8.365999999999999825e-02 3.508179999999999854e+00 2.329590000000000050e+00 4.087360000000000326e+00 4.901779999999999582e+00 5.107540000000000191e+00 3.833530000000000104e+00 5.180830000000000268e+00 3.681499999999999773e-01 5.745359999999999800e+00 1.095839999999999925e+00 3.794070000000000054e+00 1.516500000000000070e-01 1.132479999999999931e+00 3.219559999999999977e+00 2.356529999999999792e+00 2.311400000000000121e-01 5.482009999999999827e+00 4.180360000000000298e+00 2.481069999999999887e+00 5.387330000000000396e+00 1.109410000000000007e+00 5.386289999999999800e+00 2.319319999999999826e+00 1.068459999999999965e+00 4.255069999999999908e+00 1.778920000000000057e+00 1.040640000000000009e+00 1.740259999999999918e+00 4.016199999999999770e-01 3.073599999999999888e+00 4.540199999999999791e-01 7.525800000000000267e-01 2.358000000000000096e+00 3.234440000000000204e+00 4.297909999999999897e+00 2.415220000000000145e+00 3.036760000000000126e+00 1.650199999999999889e+00 5.761190000000000033e+00 5.749480000000000146e+00
2.697989999999999888e+00 3.070339999999999847e+00 5.477030000000000065e+00 5.874769999999999825e+00 2.752670000000000172e+00 3.287739999999999885e+00 4.431700000000000195e+00 1.321830000000000060e+00 1.145489999999999897e+00 1.482499999999999929e-01 3.969000000000000306e-02 4.188999999999999668e-02 1.330910000000000037e+00 4.024790000000000312e+00 1.454260000000000108e+00 4.244010000000000282e+00 4.338829999999999742e+00 4.030630000000000379e+00 6.285000000000000309e-02 2.300300000000000122e-01 3.154790000000000205e+00 4.297769999999999868e+00 1.233899999999999997e+00 4.509529999999999816e+00 2.953699999999999992e+00 -3.638999999999999874e-02 2.543750000000000178e+00 5.693789999999999907e+00 2.877769999999999939e+00 5.638390000000000235e+00 1.264550000000000063e+00 1.433119999999999949e+00 1.537919999999999954e+00 1.515139999999999931e+00 4.602269999999999861e+00 3.912970000000000059e+00 2.570530000000000204e+00 5.864189999999999792e+00 7.416000000000000369e-02 1.815069999999999961e+00 1.262140000000000040e+00 4.802979999999999805e+00 3.229680000000000106e+00 2.835150000000000059e+00 2.570570000000000022e+00 4.968670000000000364e+00 4.450249999999999595e+00 1.611869999999999914e+00
4.795200000000000351e+00 1.461279999999999912e+00 1.732369999999999965e+00 3.990199999999999858e-01 2.488929999999999865e+00 1.462450000000000028e+00 5.192169999999999952e+00 1.955419999999999936e+00 5.586219999999999963e+00 1.239270000000000094e+00 4.895970000000000155e+00 3.642009999999999970e+00 5.333490000000000286e+00 6.124579999999999913e+00 3.436650000000000205e+00 5.388889999999999958e+00 3.290770000000000195e+00 3.556890000000000107e+00 2.296759999999999913e+00 4.166159999999999641e+00 6.158500000000000085e-01 1.447040000000000104e+00 6.471099999999999630e-01 2.891830000000000123e+00 3.457310000000000105e+00 5.944670000000000343e+00 5.837950000000000195e+00 4.749880000000000102e+00 3.867970000000000130e+00 8.936399999999999899e-01 7.901399999999999535e-01 3.049840000000000106e+00 4.997510000000000119e+00 9.238699999999999690e-01 6.739899999999999780e-01 5.575520000000000032e+00 3.094050000000000189e+00 3.620000000000000107e+00 3.173970000000000180e+00 2.446569999999999911e+00 6.092740000000000045e+00 1.593159999999999910e+00 5.912880000000000358e+00 5.075149999999999828e+00 5.348770000000000024e+00 2.689929999999999932e+00 1.951109999999999900e+00 3.960799999999999876e-01
4.841079999999999828e+00 7.747800000000000242e-01 1.461759999999999948e+00 4.938699999999999757e-01 2.169709999999999805e+00 1.230110000000000037e+00 5.186819999999999986e+00 1.772499999999999964e+00 5.272260000000000169e+00 1.536470000000000002e+00 5.199029999999999596e+00 3.972150000000000070e+00 5.375810000000000421e+00 5.683849999999999625e+00 3.336520000000000152e+00 5.692339999999999733e+00 3.471979999999999844e+00 2.891760000000000108e+00 1.763970000000000038e+00 4.209950000000000081e+00 5.044100000000000250e-01 8.655899999999999705e-01 1.656360000000000054e+00 3.824879999999999836e+00 3.572659999999999947e+00 6.030999999999999694e+00 5.460869999999999891e+00 4.394140000000000157e+00 3.702929999999999833e+00 6.522900000000000365e-01 9.266199999999999992e-01 2.996220000000000105e+00 5.134800000000000253e+00 7.259999999999999787e-01 1.021200000000000024e-01 5.916629999999999612e+00 3.167419999999999902e+00 3.751650000000000151e+00 2.458140000000000214e+00 2.354410000000000114e+00 7.188999999999999557e-02 1.588940000000000019e+00 5.481440000000000090e+00 4.443579999999999863e+00 5.369089999999999918e+00 2.942909999999999915e+00 2.063429999999999875e+00 7.110499999999999599e-01
