-4.152336575999999724e+01
-4.180200605999999652e+01
-4.154447917000000245e+01
-4.275072133999999835e+01
-4.131239963000000159e+01
-4.137767556000000013e+01
-4.154214873000000097e+01
-4.147586376000000286e+01
-4.170938369000000279e+01
-4.154214873000000097e+01
-4.147586376000000286e+01
-4.140243010999999740e+01
-4.121667630000000315e+01
-4.131621175000000079e+01
-4.154214873000000097e+01
-4.130861063999999772e+01
-4.154214873000000097e+01
-4.122463138999999899e+01
-4.147586376000000286e+01
-4.119746379000000047e+01
-4.158028345999999686e+01
-4.147586376000000286e+01
-4.154214873000000097e+01
-4.156664486999999752e+01
-4.121985252000000344e+01
-4.151815710999999709e+01
-4.258228301999999843e+01
-4.147586376000000286e+01
-4.142001768000000084e+01
