-1.153450000000000031e-01 -9.387299999999999811e-02 7.549839999999999884e-01 -4.692400000000000043e-02 7.872300000000000131e-02 2.236209999999999865e-01 -3.063500000000000112e-01 2.054299999999999876e-02 -7.716299999999999548e-02 -4.779220000000000135e-01 -2.654790000000000205e-01 -2.362600000000000117e-02 -2.926849999999999730e-01 1.339909999999999990e-01 4.125639999999999863e-01 3.475949999999999873e-01 2.382769999999999888e-01 3.539849999999999941e-01 1.336789999999999923e-01 -2.644150000000000111e-01 9.925900000000000001e-02 2.175290000000000001e-01 5.200300000000000061e-02 -4.696919999999999984e-01 5.431380000000000097e-01 2.484959999999999947e-01 -3.689330000000000109e-01 -5.543460000000000054e-01 -1.284800000000000109e-01 -7.525399999999999867e-01 4.623669999999999725e-01 6.235500000000000070e-02 -1.009125000000000050e+00 8.926499999999999713e-02 -8.214100000000000568e-02 8.566660000000000386e-01
1.796719999999999984e-01 -1.701940000000000119e-01 5.270219999999999905e-01 2.024839999999999973e-01 -1.290509999999999990e-01 -6.093709999999999960e-01 4.174999999999999892e-03 5.593900000000000261e-02 2.260919999999999874e-01 2.505410000000000137e-01 -1.958000000000000018e-01 9.961899999999999922e-02 -2.172679999999999889e-01 -2.352609999999999979e-01 5.740169999999999995e-01 8.074099999999999333e-02 2.830389999999999850e-01 5.900929999999999787e-01 4.614200000000000246e-02 1.996159999999999879e-01 -9.028300000000000214e-02 -2.743309999999999915e-01 2.859619999999999940e-01 -6.519150000000000222e-01 -2.390450000000000075e-01 -1.947820000000000107e-01 1.018669999999999992e-01 -1.387190000000000090e-01 -2.860759999999999970e-01 -5.762789999999999857e-01 1.763790000000000080e-01 2.844499999999999806e-01 -5.879349999999999854e-01 -7.077100000000000057e-02 1.021579999999999988e-01 3.970719999999999805e-01
1.407799999999999885e-01 -1.821589999999999876e-01 -7.544299999999999617e-02 7.132000000000000318e-03 -1.610729999999999940e-01 4.115679999999999894e-01 2.250469999999999970e-01 -3.164529999999999843e-01 1.767200000000000021e-02 1.500920000000000032e-01 -1.325300000000000089e-01 9.730029999999999513e-01 8.888000000000000067e-02 -2.132969999999999866e-01 -5.324440000000000284e-01 -4.036540000000000128e-01 2.372080000000000022e-01 -3.162420000000000231e-01 -2.739449999999999941e-01 4.288080000000000225e-01 5.400559999999999805e-01 3.031899999999999873e-02 6.228000000000000203e-02 4.340990000000000126e-01 -7.118099999999999428e-02 -3.908269999999999800e-01 -4.306260000000000088e-01 -1.337099999999999955e-01 8.219600000000000517e-02 -3.511759999999999882e-01 1.139479999999999937e-01 1.843629999999999991e-01 -6.299099999999999699e-01 1.262929999999999886e-01 4.014829999999999788e-01 -4.055700000000000277e-02
1.707430000000000059e-01 -4.089559999999999862e-01 1.358708000000000027e+00 6.735700000000000021e-02 3.130850000000000022e-01 -7.646389999999999576e-01 -3.437379999999999880e-01 -7.629000000000000364e-03 1.281781999999999977e+00 1.848529999999999895e-01 -1.606889999999999985e-01 -5.503149999999999986e-01 -1.641990000000000116e-01 4.080139999999999878e-01 -1.479711999999999916e+00 3.609709999999999863e-01 -1.419100000000000084e-01 -2.318320000000000103e-01 -9.883599999999999330e-02 -1.787050000000000027e-01 3.308599999999999874e-01 -3.097690000000000166e-01 5.506640000000000423e-01 4.838499999999999746e-02 -8.000300000000000467e-02 -5.741279999999999717e-01 -9.307600000000000595e-02 -2.224069999999999936e-01 2.818620000000000014e-01 8.573469999999999702e-01 6.933699999999999586e-02 -2.156510000000000093e-01 -1.450204000000000049e+00 3.656920000000000170e-01 1.340419999999999945e-01 6.926959999999999784e-01
-2.000780000000000058e-01 -4.868600000000000011e-02 -3.529180000000000095e-01 5.935880000000000045e-01 -7.709900000000000087e-02 4.188439999999999941e-01 -5.330799999999999983e-01 1.882149999999999934e-01 -2.045889999999999931e-01 -6.028780000000000250e-01 -6.653540000000000010e-01 1.249500000000000055e-01 -4.727439999999999976e-01 -4.362730000000000219e-01 -9.548149999999999693e-01 -1.243499999999999987e-02 -3.067659999999999831e-01 -1.137740000000000001e-01 8.491969999999999796e-01 4.206700000000000023e-02 7.033009999999999540e-01 -6.760810000000000430e-01 4.414799999999999836e-01 9.228159999999999696e-01 2.026270000000000016e-01 2.714030000000000054e-01 4.663209999999999855e-01 3.543479999999999963e-01 1.593870000000000009e-01 5.941330000000000222e-01 3.128569999999999962e-01 3.039470000000000227e-01 -8.975049999999999972e-01 1.846790000000000098e-01 1.276789999999999869e-01 -7.067649999999999766e-01
-1.059449999999999975e-01 -2.777400000000000008e-02 -4.240599999999999925e-01 5.640549999999999731e-01 -6.135299999999999782e-02 1.379809999999999925e-01 -4.400859999999999772e-01 2.605509999999999771e-01 -1.378580000000000083e-01 -5.077880000000000171e-01 -8.461840000000000472e-01 1.533650000000000013e-01 -4.975680000000000103e-01 -6.008660000000000112e-01 -7.307869999999999644e-01 7.864500000000000657e-02 -3.760930000000000106e-01 -3.678980000000000028e-01 7.652750000000000385e-01 -7.293199999999999683e-02 9.054999999999999716e-01 -6.982270000000000421e-01 5.300589999999999469e-01 8.538759999999999684e-01 1.531700000000000006e-01 2.946090000000000098e-01 3.805560000000000054e-01 2.203730000000000133e-01 2.347420000000000062e-01 8.282420000000000337e-01 3.314409999999999856e-01 4.433969999999999856e-01 -6.589699999999999447e-01 1.366549999999999987e-01 2.218440000000000134e-01 -9.399450000000000305e-01
-2.110000000000000059e-04 -9.039999999999999642e-04 9.035800000000000498e-01 -5.623700000000000226e-02 6.900100000000000677e-02 -1.644599999999999951e-01 -1.882999999999999952e-02 -2.466600000000000042e-02 9.780200000000000005e-02 7.283900000000000097e-02 -3.220699999999999952e-02 -9.713700000000000112e-02 -9.506499999999999673e-02 1.120990000000000042e-01 1.993989999999999929e-01 6.824700000000000211e-02 -1.073309999999999959e-01 1.812209999999999932e-01 3.277399999999999758e-02 2.947599999999999873e-02 6.802999999999999325e-02 7.877699999999999980e-02 -3.193700000000000011e-02 -2.835590000000000055e-01 -8.045800000000000174e-02 -4.886999999999999851e-03 -5.304400000000000087e-02 -3.197000000000000189e-03 -2.810400000000000051e-02 -8.790120000000000156e-01 -2.779099999999999973e-02 4.440000000000000370e-03 -8.787559999999999816e-01 2.915099999999999983e-02 1.502099999999999963e-02 9.059359999999999635e-01
-1.231499999999999956e-02 -5.211999999999999619e-03 3.522399999999999837e-02 1.867699999999999916e-02 9.753900000000000070e-02 7.424230000000000551e-01 2.977000000000000132e-02 -6.578900000000000026e-02 -9.183800000000000296e-02 9.008499999999999841e-02 8.552300000000000180e-02 2.866219999999999879e-01 -3.970400000000000318e-02 2.467300000000000049e-02 -7.776060000000000194e-01 2.362799999999999970e-02 -3.521900000000000031e-02 -2.517070000000000141e-01 -5.827299999999999841e-02 -5.712500000000000216e-02 2.802200000000000246e-01 2.711500000000000021e-02 -2.647400000000000100e-02 7.660829999999999584e-01 -8.694000000000000339e-03 1.297099999999999989e-02 -2.320649999999999935e-01 -3.970300000000000218e-02 4.944199999999999984e-02 3.648999999999999900e-03 -1.268500000000000009e-02 -8.062999999999999334e-02 -7.804649999999999643e-01 -1.790100000000000025e-02 3.009999999999999980e-04 1.945799999999999960e-02
-9.043800000000000450e-02 -1.395689999999999986e-01 5.146929999999999561e-01 1.569900000000000115e-02 1.570099999999999968e-02 1.292879999999999863e-01 -3.252120000000000011e-01 -1.740299999999999833e-02 -6.319400000000000017e-02 -5.505860000000000198e-01 -3.143420000000000103e-01 -2.970300000000000024e-02 -1.551949999999999996e-01 8.064100000000000434e-02 5.998210000000000486e-01 2.268519999999999981e-01 4.319669999999999899e-01 5.252909999999999524e-01 4.403300000000000269e-02 -3.372499999999999942e-01 2.031900000000000095e-01 1.886420000000000041e-01 1.383709999999999940e-01 -6.767889999999999739e-01 6.920929999999999582e-01 3.047570000000000001e-01 -5.516140000000000487e-01 -6.422989999999999533e-01 -1.768029999999999879e-01 -4.778999999999999915e-01 5.606109999999999705e-01 1.156719999999999970e-01 -8.358079999999999954e-01 3.579999999999999849e-02 -1.017419999999999991e-01 6.627239999999999798e-01
-2.110000000000000059e-04 -9.039999999999999642e-04 9.035800000000000498e-01 -5.623700000000000226e-02 6.900100000000000677e-02 -1.644599999999999951e-01 -1.882999999999999952e-02 -2.466600000000000042e-02 9.780200000000000005e-02 7.283900000000000097e-02 -3.220699999999999952e-02 -9.713700000000000112e-02 -9.506499999999999673e-02 1.120990000000000042e-01 1.993989999999999929e-01 6.824700000000000211e-02 -1.073309999999999959e-01 1.812209999999999932e-01 3.277399999999999758e-02 2.947599999999999873e-02 6.802999999999999325e-02 7.877699999999999980e-02 -3.193700000000000011e-02 -2.835590000000000055e-01 -8.045800000000000174e-02 -4.886999999999999851e-03 -5.304400000000000087e-02 -3.197000000000000189e-03 -2.810400000000000051e-02 -8.790120000000000156e-01 -2.779099999999999973e-02 4.440000000000000370e-03 -8.787559999999999816e-01 2.915099999999999983e-02 1.502099999999999963e-02 9.059359999999999635e-01
-1.231499999999999956e-02 -5.211999999999999619e-03 3.522399999999999837e-02 1.867699999999999916e-02 9.753900000000000070e-02 7.424230000000000551e-01 2.977000000000000132e-02 -6.578900000000000026e-02 -9.183800000000000296e-02 9.008499999999999841e-02 8.552300000000000180e-02 2.866219999999999879e-01 -3.970400000000000318e-02 2.467300000000000049e-02 -7.776060000000000194e-01 2.362799999999999970e-02 -3.521900000000000031e-02 -2.517070000000000141e-01 -5.827299999999999841e-02 -5.712500000000000216e-02 2.802200000000000246e-01 2.711500000000000021e-02 -2.647400000000000100e-02 7.660829999999999584e-01 -8.694000000000000339e-03 1.297099999999999989e-02 -2.320649999999999935e-01 -3.970300000000000218e-02 4.944199999999999984e-02 3.648999999999999900e-03 -1.268500000000000009e-02 -8.062999999999999334e-02 -7.804649999999999643e-01 -1.790100000000000025e-02 3.009999999999999980e-04 1.945799999999999960e-02
1.071320000000000050e-01 7.375460000000000349e-01 1.118689000000000044e+00 1.728870000000000129e-01 4.679949999999999943e-01 -9.142310000000000159e-01 -1.649490000000000123e-01 -3.176849999999999952e-01 1.033000000000000064e-03 2.266900000000000026e-01 2.237510000000000054e-01 4.766600000000000004e-02 -2.726190000000000002e-01 -5.389089999999999714e-01 -2.579969999999999763e-01 -1.106830000000000036e-01 6.741200000000000525e-01 -5.110200000000000298e-01 -7.842999999999999278e-03 -1.570099999999999968e-02 6.996360000000000356e-01 -4.480620000000000158e-01 -4.021299999999999875e-01 -1.048786999999999914e+00 2.176160000000000039e-01 9.118800000000000516e-02 5.927430000000000199e-01 1.581660000000000010e-01 1.644770000000000121e-01 -3.993209999999999815e-01 -9.873700000000000532e-02 -3.309940000000000104e-01 -6.367829999999999879e-01 2.204029999999999878e-01 -7.536580000000000501e-01 1.308373999999999926e+00
9.245689999999999742e-01 6.577229999999999466e-01 2.980960000000000276e-01 1.280270000000000019e-01 -1.080656999999999979e+00 -8.087199999999999944e-02 1.206340000000000051e-01 4.338700000000000195e-02 5.781129999999999880e-01 -1.969940000000000024e-01 1.085347999999999979e+00 3.313090000000000201e-01 -1.020753000000000021e+00 -8.212589999999999613e-01 -6.020039999999999836e-01 1.910910000000000108e-01 -4.761839999999999962e-01 -1.589982000000000006e+00 -3.928599999999999870e-01 -9.083369999999999500e-01 6.630080000000000418e-01 1.128490000000000049e-01 1.051528000000000018e+00 1.259119999999999961e-01 1.194879999999999970e-01 5.527220000000000466e-01 -5.358429999999999582e-01 4.003120000000000012e-01 -5.336419999999999497e-01 6.409859999999999447e-01 7.918279999999999763e-01 6.756619999999999848e-01 -4.186159999999999881e-01 -1.178193000000000046e+00 -2.462920000000000109e-01 5.898930000000000007e-01
1.719839999999999980e-01 3.481380000000000030e-01 9.823089999999999877e-01 5.166760000000000241e-01 -3.420869999999999744e-01 -1.106192999999999982e+00 -4.245559999999999889e-01 1.272639999999999882e-01 -6.302029999999999577e-01 7.885469999999999979e-01 4.449499999999999983e-02 6.180299999999999683e-02 5.077500000000000346e-01 -4.565489999999999826e-01 6.920779999999999710e-01 -9.386280000000000179e-01 -2.780630000000000046e-01 -4.646839999999999860e-01 8.626669999999999616e-01 3.020379999999999732e-01 5.559429999999999650e-01 -2.416560000000000097e-01 4.031049999999999911e-01 8.627100000000000046e-02 -1.302376999999999896e+00 -6.860199999999999632e-02 4.392260000000000053e-01 8.116700000000000303e-02 -2.837500000000000022e-01 -9.519630000000000036e-01 -1.117910000000000015e-01 2.019720000000000126e-01 -6.992380000000000262e-01 9.021700000000000552e-02 2.037999999999999881e-03 1.034651999999999905e+00
-2.110000000000000059e-04 -9.039999999999999642e-04 9.035800000000000498e-01 -5.623700000000000226e-02 6.900100000000000677e-02 -1.644599999999999951e-01 -1.882999999999999952e-02 -2.466600000000000042e-02 9.780200000000000005e-02 7.283900000000000097e-02 -3.220699999999999952e-02 -9.713700000000000112e-02 -9.506499999999999673e-02 1.120990000000000042e-01 1.993989999999999929e-01 6.824700000000000211e-02 -1.073309999999999959e-01 1.812209999999999932e-01 3.277399999999999758e-02 2.947599999999999873e-02 6.802999999999999325e-02 7.877699999999999980e-02 -3.193700000000000011e-02 -2.835590000000000055e-01 -8.045800000000000174e-02 -4.886999999999999851e-03 -5.304400000000000087e-02 -3.197000000000000189e-03 -2.810400000000000051e-02 -8.790120000000000156e-01 -2.779099999999999973e-02 4.440000000000000370e-03 -8.787559999999999816e-01 2.915099999999999983e-02 1.502099999999999963e-02 9.059359999999999635e-01
-5.068420000000000147e-01 -1.980639999999999901e-01 1.086526000000000103e+00 -8.757599999999999829e-01 9.945110000000000339e-01 -3.647299999999999986e-01 -9.459279999999999911e-01 -6.093129999999999935e-01 5.877199999999999785e-02 -3.093339999999999979e-01 1.610520000000000007e-01 2.521880000000000233e-01 -6.008510000000000240e-01 4.960390000000000077e-01 -5.908590000000000231e-01 1.399893999999999972e+00 -3.830210000000000004e-01 -6.345049999999999857e-01 4.241190000000000238e-01 3.353030000000000177e-01 4.219609999999999750e-01 6.525170000000000137e-01 -1.261730000000000018e+00 -6.437789999999999901e-01 7.184359999999999635e-01 3.299659999999999815e-01 2.337780000000000136e-01 7.692320000000000269e-01 3.906080000000000108e-01 -9.045349999999999779e-01 -7.237409999999999677e-01 -4.389710000000000001e-01 -6.130999999999999783e-01 -1.742999999999999975e-03 1.836210000000000064e-01 1.698282999999999987e+00
-2.110000000000000059e-04 -9.039999999999999642e-04 9.035800000000000498e-01 -5.623700000000000226e-02 6.900100000000000677e-02 -1.644599999999999951e-01 -1.882999999999999952e-02 -2.466600000000000042e-02 9.780200000000000005e-02 7.283900000000000097e-02 -3.220699999999999952e-02 -9.713700000000000112e-02 -9.506499999999999673e-02 1.120990000000000042e-01 1.993989999999999929e-01 6.824700000000000211e-02 -1.073309999999999959e-01 1.812209999999999932e-01 3.277399999999999758e-02 2.947599999999999873e-02 6.802999999999999325e-02 7.877699999999999980e-02 -3.193700000000000011e-02 -2.835590000000000055e-01 -8.045800000000000174e-02 -4.886999999999999851e-03 -5.304400000000000087e-02 -3.197000000000000189e-03 -2.810400000000000051e-02 -8.790120000000000156e-01 -2.779099999999999973e-02 4.440000000000000370e-03 -8.787559999999999816e-01 2.915099999999999983e-02 1.502099999999999963e-02 9.059359999999999635e-01
3.940420000000000034e-01 -1.074470000000000008e-01 3.069930000000000159e-01 -5.630359999999999809e-01 8.308349999999999902e-01 8.528860000000000330e-01 -9.351399999999999990e-02 -7.400280000000000191e-01 -1.332720000000000016e-01 5.664360000000000506e-01 6.922390000000000487e-01 -1.125130000000000019e-01 2.250610000000000110e-01 -4.265959999999999752e-01 -7.719089999999999563e-01 3.553029999999999800e-01 1.459380000000000122e-01 -5.205670000000000019e-01 3.414679999999999938e-01 8.473600000000000576e-02 6.676840000000000552e-01 7.453999999999999515e-02 -1.101996999999999893e+00 9.907160000000000410e-01 -8.647380000000000067e-01 3.054580000000000073e-01 -5.017610000000000126e-01 -3.062989999999999879e-01 4.206070000000000086e-01 -4.361329999999999929e-01 6.938800000000000523e-02 3.321609999999999840e-01 -5.733409999999999895e-01 -1.986509999999999942e-01 -4.359060000000000157e-01 2.312160000000000049e-01
-1.231499999999999956e-02 -5.211999999999999619e-03 3.522399999999999837e-02 1.867699999999999916e-02 9.753900000000000070e-02 7.424230000000000551e-01 2.977000000000000132e-02 -6.578900000000000026e-02 -9.183800000000000296e-02 9.008499999999999841e-02 8.552300000000000180e-02 2.866219999999999879e-01 -3.970400000000000318e-02 2.467300000000000049e-02 -7.776060000000000194e-01 2.362799999999999970e-02 -3.521900000000000031e-02 -2.517070000000000141e-01 -5.827299999999999841e-02 -5.712500000000000216e-02 2.802200000000000246e-01 2.711500000000000021e-02 -2.647400000000000100e-02 7.660829999999999584e-01 -8.694000000000000339e-03 1.297099999999999989e-02 -2.320649999999999935e-01 -3.970300000000000218e-02 4.944199999999999984e-02 3.648999999999999900e-03 -1.268500000000000009e-02 -8.062999999999999334e-02 -7.804649999999999643e-01 -1.790100000000000025e-02 3.009999999999999980e-04 1.945799999999999960e-02
1.043744000000000005e+00 7.503130000000000077e-01 5.682840000000000114e-01 1.158190000000000053e-01 -7.994130000000000402e-01 2.142179999999999918e-01 2.187070000000000125e-01 -1.041969999999999980e-01 1.529850000000000099e-01 -7.962900000000000533e-02 1.040380000000000082e+00 3.243699999999999917e-01 -8.673840000000000439e-01 -5.986359999999999459e-01 -6.656840000000000535e-01 3.335219999999999851e-01 -6.163020000000000165e-01 -1.477562000000000042e+00 -3.847349999999999937e-01 -8.668320000000000469e-01 6.011819999999999942e-01 1.066870000000000041e-01 7.903940000000000410e-01 4.243899999999999895e-01 -4.681899999999999951e-02 6.003960000000000408e-01 -6.253319999999999990e-01 1.705849999999999866e-01 -2.194939999999999947e-01 2.661870000000000069e-01 6.857250000000000290e-01 4.830900000000000194e-01 -5.429699999999999527e-01 -1.296221000000000068e+00 -4.596979999999999955e-01 7.599320000000000519e-01
1.332869999999999888e-01 -1.385240000000000082e-01 7.610170000000000545e-01 2.606319999999999748e-01 -1.640030000000000099e-01 -4.469629999999999992e-01 -8.734000000000000097e-02 8.361000000000000376e-03 6.421100000000000418e-02 3.912260000000000182e-01 -1.775430000000000064e-01 1.790650000000000019e-01 -2.821440000000000059e-01 -9.682100000000000428e-02 4.297980000000000134e-01 1.581799999999999873e-01 1.284379999999999966e-01 4.320869999999999989e-01 1.349249999999999894e-01 1.644849999999999923e-01 -1.839179999999999982e-01 -2.968850000000000100e-01 3.036940000000000195e-01 -5.614529999999999799e-01 -3.826930000000000054e-01 -1.051630000000000065e-01 2.129459999999999964e-01 -1.290630000000000110e-01 -2.902410000000000267e-01 -7.734609999999999541e-01 1.385629999999999917e-01 2.720980000000000065e-01 -7.770190000000000152e-01 -3.868499999999999717e-02 9.521999999999999909e-02 6.636910000000000309e-01
-1.231499999999999956e-02 -5.211999999999999619e-03 3.522399999999999837e-02 1.867699999999999916e-02 9.753900000000000070e-02 7.424230000000000551e-01 2.977000000000000132e-02 -6.578900000000000026e-02 -9.183800000000000296e-02 9.008499999999999841e-02 8.552300000000000180e-02 2.866219999999999879e-01 -3.970400000000000318e-02 2.467300000000000049e-02 -7.776060000000000194e-01 2.362799999999999970e-02 -3.521900000000000031e-02 -2.517070000000000141e-01 -5.827299999999999841e-02 -5.712500000000000216e-02 2.802200000000000246e-01 2.711500000000000021e-02 -2.647400000000000100e-02 7.660829999999999584e-01 -8.694000000000000339e-03 1.297099999999999989e-02 -2.320649999999999935e-01 -3.970300000000000218e-02 4.944199999999999984e-02 3.648999999999999900e-03 -1.268500000000000009e-02 -8.062999999999999334e-02 -7.804649999999999643e-01 -1.790100000000000025e-02 3.009999999999999980e-04 1.945799999999999960e-02
-2.110000000000000059e-04 -9.039999999999999642e-04 9.035800000000000498e-01 -5.623700000000000226e-02 6.900100000000000677e-02 -1.644599999999999951e-01 -1.882999999999999952e-02 -2.466600000000000042e-02 9.780200000000000005e-02 7.283900000000000097e-02 -3.220699999999999952e-02 -9.713700000000000112e-02 -9.506499999999999673e-02 1.120990000000000042e-01 1.993989999999999929e-01 6.824700000000000211e-02 -1.073309999999999959e-01 1.812209999999999932e-01 3.277399999999999758e-02 2.947599999999999873e-02 6.802999999999999325e-02 7.877699999999999980e-02 -3.193700000000000011e-02 -2.835590000000000055e-01 -8.045800000000000174e-02 -4.886999999999999851e-03 -5.304400000000000087e-02 -3.197000000000000189e-03 -2.810400000000000051e-02 -8.790120000000000156e-01 -2.779099999999999973e-02 4.440000000000000370e-03 -8.787559999999999816e-01 2.915099999999999983e-02 1.502099999999999963e-02 9.059359999999999635e-01
2.503460000000000130e-01 6.971859999999999724e-01 8.239319999999999977e-01 2.423599999999999921e-01 4.242799999999999905e-01 -1.064524000000000026e+00 -2.061709999999999932e-01 -4.578789999999999805e-01 -9.691400000000000015e-02 1.977990000000000026e-01 4.357940000000000147e-01 -1.689650000000000041e-01 -2.937670000000000003e-01 -4.795320000000000138e-01 2.889800000000000008e-02 -2.009100000000000052e-01 6.685750000000000304e-01 -3.069600000000000106e-01 -8.693900000000000239e-02 -8.067000000000000559e-02 9.717919999999999892e-01 -6.153260000000000396e-01 -3.502049999999999885e-01 -1.124881000000000020e+00 4.618240000000000123e-01 7.716299999999999548e-02 5.249949999999999894e-01 2.446419999999999983e-01 1.534200000000000008e-01 -1.702239999999999864e-01 -1.537080000000000113e-01 -3.769460000000000033e-01 -4.868529999999999802e-01 1.598509999999999931e-01 -7.111859999999999848e-01 1.069703000000000070e+00
2.951150000000000162e-01 -3.499410000000000021e-01 7.719199999999999673e-02 -6.765790000000000415e-01 7.922249999999999570e-01 7.446620000000000461e-01 -2.073160000000000003e-01 -6.700380000000000225e-01 1.968459999999999932e-01 6.099480000000000457e-01 5.636660000000000004e-01 -2.300139999999999962e-01 2.469850000000000101e-01 -5.234079999999999844e-01 -6.376819999999999711e-01 1.799070000000000114e-01 2.528560000000000252e-01 -6.127070000000000016e-01 6.169909999999999561e-01 5.673559999999999715e-01 8.870130000000000514e-01 -4.409699999999999731e-02 -1.167977999999999961e+00 9.277549999999999963e-01 -8.835570000000000368e-01 4.191880000000000051e-01 -5.718889999999999807e-01 -2.554580000000000184e-01 2.024110000000000076e-01 -4.466910000000000047e-01 2.035810000000000120e-01 4.581669999999999909e-01 -3.609979999999999856e-01 -8.551999999999999880e-02 -5.445029999999999593e-01 2.651399999999999937e-02
3.224099999999999883e-02 -9.747500000000000608e-02 1.094159999999999994e-01 -9.890999999999999792e-02 3.975449999999999817e-01 7.669580000000000286e-01 -2.414300000000000126e-02 -2.150900000000000034e-01 -1.798019999999999896e-01 -2.965180000000000038e-01 8.004400000000000404e-02 2.891830000000000234e-01 -3.582350000000000256e-01 -1.413929999999999909e-01 -6.977689999999999726e-01 -3.719900000000000290e-02 2.086500000000000160e-02 -2.524750000000000050e-01 1.938249999999999973e-01 -2.662399999999999836e-02 2.885530000000000039e-01 1.671590000000000020e-01 -3.100930000000000075e-01 6.739640000000000075e-01 2.212369999999999892e-01 -1.923040000000000027e-01 -4.389899999999999913e-01 1.933219999999999938e-01 1.609089999999999965e-01 2.857799999999999924e-02 2.437239999999999962e-01 2.049479999999999913e-01 -6.506189999999999474e-01 -2.365029999999999910e-01 1.186659999999999937e-01 6.300200000000000244e-02
1.241280000000000022e-01 -1.309720000000000051e-01 1.905656000000000017e+00 -2.716410000000000213e-01 4.630070000000000019e-01 -1.124390999999999918e+00 -1.342349999999999932e-01 -1.863960000000000061e-01 1.238431999999999977e+00 -8.152580000000000382e-01 2.312329999999999941e-01 1.109995999999999983e+00 6.049679999999999502e-01 -5.962920000000000442e-01 -1.210480000000000000e+00 4.410549999999999748e-01 1.443869999999999876e-01 -3.404449999999999976e-01 3.653660000000000241e-01 4.586089999999999889e-01 1.013533000000000017e+00 -6.324499999999999567e-02 8.387000000000000358e-03 -8.653309999999999613e-01 4.639090000000000158e-01 -9.628649999999999709e-01 -3.618120000000000225e-01 -4.861610000000000098e-01 -4.201199999999999934e-01 4.722970000000000224e-01 -6.771009999999999529e-01 6.556239999999999846e-01 -1.286559999999999926e+00 4.482149999999999745e-01 3.353990000000000027e-01 -5.508960000000000523e-01
-1.231499999999999956e-02 -5.211999999999999619e-03 3.522399999999999837e-02 1.867699999999999916e-02 9.753900000000000070e-02 7.424230000000000551e-01 2.977000000000000132e-02 -6.578900000000000026e-02 -9.183800000000000296e-02 9.008499999999999841e-02 8.552300000000000180e-02 2.866219999999999879e-01 -3.970400000000000318e-02 2.467300000000000049e-02 -7.776060000000000194e-01 2.362799999999999970e-02 -3.521900000000000031e-02 -2.517070000000000141e-01 -5.827299999999999841e-02 -5.712500000000000216e-02 2.802200000000000246e-01 2.711500000000000021e-02 -2.647400000000000100e-02 7.660829999999999584e-01 -8.694000000000000339e-03 1.297099999999999989e-02 -2.320649999999999935e-01 -3.970300000000000218e-02 4.944199999999999984e-02 3.648999999999999900e-03 -1.268500000000000009e-02 -8.062999999999999334e-02 -7.804649999999999643e-01 -1.790100000000000025e-02 3.009999999999999980e-04 1.945799999999999960e-02
9.644099999999999895e-02 4.294640000000000124e-01 7.557009999999999561e-01 3.948099999999999943e-01 -3.155700000000000172e-01 -1.442283999999999899e+00 -3.207650000000000223e-01 2.197870000000000101e-01 -8.692050000000000054e-01 5.000769999999999937e-01 1.808889999999999942e-01 -6.286700000000000621e-02 5.730969999999999676e-01 -6.671629999999999505e-01 1.087008999999999892e+00 -1.066934000000000049e+00 -4.192730000000000068e-01 -4.484580000000000233e-01 8.629099999999999548e-01 4.248160000000000269e-01 8.217410000000000547e-01 -1.267669999999999908e-01 3.317970000000000086e-01 2.174329999999999874e-01 -1.114754999999999940e+00 -1.270540000000000003e-01 4.224379999999999802e-01 1.095610000000000056e-01 -2.359709999999999863e-01 -8.585099999999999953e-01 -1.090659999999999963e-01 1.521949999999999970e-01 -4.922900000000000054e-01 2.013900000000000134e-01 2.608299999999999855e-02 8.692919999999999536e-01
