3.579507442000000150e+00 0.000000000000000000e+00 0.000000000000000000e+00 -4.061483700000000086e-02 3.559939242000000004e+00 0.000000000000000000e+00 1.689019400000000004e-01 2.642935799999999724e-01 1.674830751700000064e+01
3.790220549999999911e+00 0.000000000000000000e+00 0.000000000000000000e+00 7.730770400000000486e-02 3.747973473000000055e+00 0.000000000000000000e+00 4.419997620000000182e-01 -4.016592130000000149e-01 1.564754845600000088e+01
3.790220549999999911e+00 0.000000000000000000e+00 0.000000000000000000e+00 7.730770400000000486e-02 3.747973473000000055e+00 0.000000000000000000e+00 4.419997620000000182e-01 -4.016592130000000149e-01 1.564754845600000088e+01
3.845716738000000134e+00 0.000000000000000000e+00 0.000000000000000000e+00 6.659809199999999763e-02 3.750663937000000114e+00 0.000000000000000000e+00 -3.974976350000000158e-01 2.217587870000000128e-01 1.541268910500000011e+01
3.845716738000000134e+00 0.000000000000000000e+00 0.000000000000000000e+00 6.659809199999999763e-02 3.750663937000000114e+00 0.000000000000000000e+00 -3.974976350000000158e-01 2.217587870000000128e-01 1.541268910500000011e+01
3.732377982000000038e+00 0.000000000000000000e+00 0.000000000000000000e+00 -9.454770099999999788e-02 3.639523882999999849e+00 0.000000000000000000e+00 -3.899222000000000105e-02 3.082394310000000082e-01 1.495146494299999951e+01
3.800560019000000178e+00 0.000000000000000000e+00 0.000000000000000000e+00 8.536581599999999714e-02 3.856974729000000046e+00 0.000000000000000000e+00 -1.713189980000000001e-01 -1.012893450000000028e-01 1.398539771999999992e+01
3.482872486999999850e+00 0.000000000000000000e+00 0.000000000000000000e+00 1.056814100000000034e-01 3.478046792999999859e+00 0.000000000000000000e+00 3.351316779999999884e-01 -3.421381600000000106e-02 1.712707368099999883e+01
3.579507442000000150e+00 0.000000000000000000e+00 0.000000000000000000e+00 -4.061483700000000086e-02 3.559939242000000004e+00 0.000000000000000000e+00 1.689019400000000004e-01 2.642935799999999724e-01 1.674830751700000064e+01
3.683763749999999781e+00 0.000000000000000000e+00 0.000000000000000000e+00 -2.515846999999999875e-03 3.606587241999999804e+00 0.000000000000000000e+00 1.271105409999999936e-01 -2.866257919999999904e-01 1.491577172500000081e+01
3.796839814999999785e+00 0.000000000000000000e+00 0.000000000000000000e+00 -8.880947499999999883e-02 3.888495069999999831e+00 0.000000000000000000e+00 5.578531700000000093e-02 -1.987940960000000035e-01 1.377995113399999916e+01
3.453480057000000158e+00 0.000000000000000000e+00 0.000000000000000000e+00 3.293870000000000131e-02 3.468666121000000047e+00 0.000000000000000000e+00 -4.476859779999999844e-01 3.838361099999999804e-02 1.711661150100000128e+01
3.700223841000000125e+00 0.000000000000000000e+00 0.000000000000000000e+00 1.112048759999999942e-01 3.729899563000000029e+00 0.000000000000000000e+00 4.606243099999999813e-01 -4.536832270000000222e-01 1.538450794200000082e+01
3.790220549999999911e+00 0.000000000000000000e+00 0.000000000000000000e+00 7.730770400000000486e-02 3.747973473000000055e+00 0.000000000000000000e+00 4.419997620000000182e-01 -4.016592130000000149e-01 1.564754845600000088e+01
3.790220549999999911e+00 0.000000000000000000e+00 0.000000000000000000e+00 7.730770400000000486e-02 3.747973473000000055e+00 0.000000000000000000e+00 4.419997620000000182e-01 -4.016592130000000149e-01 1.564754845600000088e+01
3.622317634999999925e+00 0.000000000000000000e+00 0.000000000000000000e+00 4.762268699999999688e-02 3.618112924000000064e+00 0.000000000000000000e+00 4.618835809999999875e-01 1.386274630000000063e-01 1.713942527700000085e+01
3.644414171000000202e+00 0.000000000000000000e+00 0.000000000000000000e+00 2.783647200000000099e-02 3.520023114999999869e+00 0.000000000000000000e+00 -2.382783450000000025e-01 3.553162519999999991e-01 1.602078697299999988e+01
3.790220549999999911e+00 0.000000000000000000e+00 0.000000000000000000e+00 7.730770400000000486e-02 3.747973473000000055e+00 0.000000000000000000e+00 4.419997620000000182e-01 -4.016592130000000149e-01 1.564754845600000088e+01
3.809528514999999782e+00 0.000000000000000000e+00 0.000000000000000000e+00 -1.087801840000000020e-01 3.799490970999999995e+00 0.000000000000000000e+00 -4.371420369999999833e-01 -3.588491000000000077e-03 1.514293448599999969e+01
3.844473987999999842e+00 0.000000000000000000e+00 0.000000000000000000e+00 8.106160099999999702e-02 3.785733120999999812e+00 0.000000000000000000e+00 -3.626424360000000124e-01 -2.501437389999999761e-01 1.476734008100000040e+01
3.790220549999999911e+00 0.000000000000000000e+00 0.000000000000000000e+00 7.730770400000000486e-02 3.747973473000000055e+00 0.000000000000000000e+00 4.419997620000000182e-01 -4.016592130000000149e-01 1.564754845600000088e+01
3.683763749999999781e+00 0.000000000000000000e+00 0.000000000000000000e+00 -2.515846999999999875e-03 3.606587241999999804e+00 0.000000000000000000e+00 1.271105409999999936e-01 -2.866257919999999904e-01 1.491577172500000081e+01
3.706282469000000024e+00 0.000000000000000000e+00 0.000000000000000000e+00 1.793820299999999979e-02 3.715305751999999906e+00 0.000000000000000000e+00 -5.180805699999999764e-02 4.216332099999999805e-01 1.558555266199999956e+01
3.453480057000000158e+00 0.000000000000000000e+00 0.000000000000000000e+00 3.293870000000000131e-02 3.468666121000000047e+00 0.000000000000000000e+00 -4.476859779999999844e-01 3.838361099999999804e-02 1.711661150100000128e+01
3.453480057000000158e+00 0.000000000000000000e+00 0.000000000000000000e+00 3.293870000000000131e-02 3.468666121000000047e+00 0.000000000000000000e+00 -4.476859779999999844e-01 3.838361099999999804e-02 1.711661150100000128e+01
3.442792297000000001e+00 0.000000000000000000e+00 0.000000000000000000e+00 1.890540599999999960e-02 3.536583793999999781e+00 0.000000000000000000e+00 -2.943883200000000158e-02 4.473235170000000038e-01 1.625011326899999986e+01
3.919770855999999970e+00 0.000000000000000000e+00 0.000000000000000000e+00 -2.824455600000000052e-02 3.894646588000000076e+00 0.000000000000000000e+00 -3.045210500000000015e-02 -1.178369830000000062e-01 2.004264816699999940e+01
3.833751298999999779e+00 0.000000000000000000e+00 0.000000000000000000e+00 -4.544872500000000232e-02 3.881960707999999816e+00 0.000000000000000000e+00 -3.480341379999999929e-01 -7.956935000000000049e-03 1.533452087500000083e+01
3.833751298999999779e+00 0.000000000000000000e+00 0.000000000000000000e+00 -4.544872500000000232e-02 3.881960707999999816e+00 0.000000000000000000e+00 -3.480341379999999929e-01 -7.956935000000000049e-03 1.533452087500000083e+01
3.814021845000000077e+00 0.000000000000000000e+00 0.000000000000000000e+00 2.983588000000000125e-03 3.874082878999999924e+00 0.000000000000000000e+00 -4.025053080000000061e-01 1.396368649999999989e-01 1.371699469400000027e+01
3.790220549999999911e+00 0.000000000000000000e+00 0.000000000000000000e+00 7.730770400000000486e-02 3.747973473000000055e+00 0.000000000000000000e+00 4.419997620000000182e-01 -4.016592130000000149e-01 1.564754845600000088e+01
3.676018730000000012e+00 0.000000000000000000e+00 0.000000000000000000e+00 3.268367900000000020e-02 3.675058400999999808e+00 0.000000000000000000e+00 2.214863049999999944e-01 7.769529299999999861e-02 1.785506946199999945e+01
3.453480057000000158e+00 0.000000000000000000e+00 0.000000000000000000e+00 3.293870000000000131e-02 3.468666121000000047e+00 0.000000000000000000e+00 -4.476859779999999844e-01 3.838361099999999804e-02 1.711661150100000128e+01
3.845716738000000134e+00 0.000000000000000000e+00 0.000000000000000000e+00 6.659809199999999763e-02 3.750663937000000114e+00 0.000000000000000000e+00 -3.974976350000000158e-01 2.217587870000000128e-01 1.541268910500000011e+01
3.790220549999999911e+00 0.000000000000000000e+00 0.000000000000000000e+00 7.730770400000000486e-02 3.747973473000000055e+00 0.000000000000000000e+00 4.419997620000000182e-01 -4.016592130000000149e-01 1.564754845600000088e+01
3.453480057000000158e+00 0.000000000000000000e+00 0.000000000000000000e+00 3.293870000000000131e-02 3.468666121000000047e+00 0.000000000000000000e+00 -4.476859779999999844e-01 3.838361099999999804e-02 1.711661150100000128e+01
3.622317634999999925e+00 0.000000000000000000e+00 0.000000000000000000e+00 4.762268699999999688e-02 3.618112924000000064e+00 0.000000000000000000e+00 4.618835809999999875e-01 1.386274630000000063e-01 1.713942527700000085e+01
3.676018730000000012e+00 0.000000000000000000e+00 0.000000000000000000e+00 3.268367900000000020e-02 3.675058400999999808e+00 0.000000000000000000e+00 2.214863049999999944e-01 7.769529299999999861e-02 1.785506946199999945e+01
3.453480057000000158e+00 0.000000000000000000e+00 0.000000000000000000e+00 3.293870000000000131e-02 3.468666121000000047e+00 0.000000000000000000e+00 -4.476859779999999844e-01 3.838361099999999804e-02 1.711661150100000128e+01
3.706282469000000024e+00 0.000000000000000000e+00 0.000000000000000000e+00 1.793820299999999979e-02 3.715305751999999906e+00 0.000000000000000000e+00 -5.180805699999999764e-02 4.216332099999999805e-01 1.558555266199999956e+01
3.828847434000000050e+00 0.000000000000000000e+00 0.000000000000000000e+00 -9.639237300000000341e-02 3.812138007999999800e+00 0.000000000000000000e+00 3.773631170000000257e-01 -1.661917069999999941e-01 1.480789306399999994e+01
3.732377982000000038e+00 0.000000000000000000e+00 0.000000000000000000e+00 -9.454770099999999788e-02 3.639523882999999849e+00 0.000000000000000000e+00 -3.899222000000000105e-02 3.082394310000000082e-01 1.495146494299999951e+01
3.706282469000000024e+00 0.000000000000000000e+00 0.000000000000000000e+00 1.793820299999999979e-02 3.715305751999999906e+00 0.000000000000000000e+00 -5.180805699999999764e-02 4.216332099999999805e-01 1.558555266199999956e+01
3.634927294999999781e+00 0.000000000000000000e+00 0.000000000000000000e+00 9.871850399999999859e-02 3.783977033999999851e+00 0.000000000000000000e+00 -3.885025300000000126e-02 -3.505102820000000063e-01 1.472518919900000078e+01
3.453480057000000158e+00 0.000000000000000000e+00 0.000000000000000000e+00 3.293870000000000131e-02 3.468666121000000047e+00 0.000000000000000000e+00 -4.476859779999999844e-01 3.838361099999999804e-02 1.711661150100000128e+01
3.790220549999999911e+00 0.000000000000000000e+00 0.000000000000000000e+00 7.730770400000000486e-02 3.747973473000000055e+00 0.000000000000000000e+00 4.419997620000000182e-01 -4.016592130000000149e-01 1.564754845600000088e+01
3.790220549999999911e+00 0.000000000000000000e+00 0.000000000000000000e+00 7.730770400000000486e-02 3.747973473000000055e+00 0.000000000000000000e+00 4.419997620000000182e-01 -4.016592130000000149e-01 1.564754845600000088e+01
3.732901447999999789e+00 0.000000000000000000e+00 0.000000000000000000e+00 6.107676100000000025e-02 3.842553050999999886e+00 0.000000000000000000e+00 -1.133084129999999967e-01 -1.030595110000000064e-01 1.432503079600000007e+01
3.833751298999999779e+00 0.000000000000000000e+00 0.000000000000000000e+00 -4.544872500000000232e-02 3.881960707999999816e+00 0.000000000000000000e+00 -3.480341379999999929e-01 -7.956935000000000049e-03 1.533452087500000083e+01
3.790220549999999911e+00 0.000000000000000000e+00 0.000000000000000000e+00 7.730770400000000486e-02 3.747973473000000055e+00 0.000000000000000000e+00 4.419997620000000182e-01 -4.016592130000000149e-01 1.564754845600000088e+01
3.833751298999999779e+00 0.000000000000000000e+00 0.000000000000000000e+00 -4.544872500000000232e-02 3.881960707999999816e+00 0.000000000000000000e+00 -3.480341379999999929e-01 -7.956935000000000049e-03 1.533452087500000083e+01
3.844473987999999842e+00 0.000000000000000000e+00 0.000000000000000000e+00 8.106160099999999702e-02 3.785733120999999812e+00 0.000000000000000000e+00 -3.626424360000000124e-01 -2.501437389999999761e-01 1.476734008100000040e+01
3.790220549999999911e+00 0.000000000000000000e+00 0.000000000000000000e+00 7.730770400000000486e-02 3.747973473000000055e+00 0.000000000000000000e+00 4.419997620000000182e-01 -4.016592130000000149e-01 1.564754845600000088e+01
3.453480057000000158e+00 0.000000000000000000e+00 0.000000000000000000e+00 3.293870000000000131e-02 3.468666121000000047e+00 0.000000000000000000e+00 -4.476859779999999844e-01 3.838361099999999804e-02 1.711661150100000128e+01
3.844473987999999842e+00 0.000000000000000000e+00 0.000000000000000000e+00 8.106160099999999702e-02 3.785733120999999812e+00 0.000000000000000000e+00 -3.626424360000000124e-01 -2.501437389999999761e-01 1.476734008100000040e+01
3.790220549999999911e+00 0.000000000000000000e+00 0.000000000000000000e+00 7.730770400000000486e-02 3.747973473000000055e+00 0.000000000000000000e+00 4.419997620000000182e-01 -4.016592130000000149e-01 1.564754845600000088e+01
3.622317634999999925e+00 0.000000000000000000e+00 0.000000000000000000e+00 4.762268699999999688e-02 3.618112924000000064e+00 0.000000000000000000e+00 4.618835809999999875e-01 1.386274630000000063e-01 1.713942527700000085e+01
3.809109551000000149e+00 0.000000000000000000e+00 0.000000000000000000e+00 -4.007916999999999730e-02 3.828759510999999893e+00 0.000000000000000000e+00 -1.399473230000000123e-01 1.758983349999999890e-01 1.541268233799999976e+01
3.800560019000000178e+00 0.000000000000000000e+00 0.000000000000000000e+00 8.536581599999999714e-02 3.856974729000000046e+00 0.000000000000000000e+00 -1.713189980000000001e-01 -1.012893450000000028e-01 1.398539771999999992e+01
3.676076973999999886e+00 0.000000000000000000e+00 0.000000000000000000e+00 1.071797810000000017e-01 3.736792343999999932e+00 0.000000000000000000e+00 -2.995799929999999889e-01 -5.083432639999999614e-01 1.827550944100000052e+01
3.453480057000000158e+00 0.000000000000000000e+00 0.000000000000000000e+00 3.293870000000000131e-02 3.468666121000000047e+00 0.000000000000000000e+00 -4.476859779999999844e-01 3.838361099999999804e-02 1.711661150100000128e+01
3.790220549999999911e+00 0.000000000000000000e+00 0.000000000000000000e+00 7.730770400000000486e-02 3.747973473000000055e+00 0.000000000000000000e+00 4.419997620000000182e-01 -4.016592130000000149e-01 1.564754845600000088e+01
3.453480057000000158e+00 0.000000000000000000e+00 0.000000000000000000e+00 3.293870000000000131e-02 3.468666121000000047e+00 0.000000000000000000e+00 -4.476859779999999844e-01 3.838361099999999804e-02 1.711661150100000128e+01
3.482872486999999850e+00 0.000000000000000000e+00 0.000000000000000000e+00 1.056814100000000034e-01 3.478046792999999859e+00 0.000000000000000000e+00 3.351316779999999884e-01 -3.421381600000000106e-02 1.712707368099999883e+01
3.741865933999999783e+00 0.000000000000000000e+00 0.000000000000000000e+00 -8.316788599999999643e-02 3.616230985000000064e+00 0.000000000000000000e+00 7.388668299999999467e-02 2.212203160000000002e-01 1.549742660000000072e+01
3.790220549999999911e+00 0.000000000000000000e+00 0.000000000000000000e+00 7.730770400000000486e-02 3.747973473000000055e+00 0.000000000000000000e+00 4.419997620000000182e-01 -4.016592130000000149e-01 1.564754845600000088e+01
3.482872486999999850e+00 0.000000000000000000e+00 0.000000000000000000e+00 1.056814100000000034e-01 3.478046792999999859e+00 0.000000000000000000e+00 3.351316779999999884e-01 -3.421381600000000106e-02 1.712707368099999883e+01
3.622317634999999925e+00 0.000000000000000000e+00 0.000000000000000000e+00 4.762268699999999688e-02 3.618112924000000064e+00 0.000000000000000000e+00 4.618835809999999875e-01 1.386274630000000063e-01 1.713942527700000085e+01
3.828847434000000050e+00 0.000000000000000000e+00 0.000000000000000000e+00 -9.639237300000000341e-02 3.812138007999999800e+00 0.000000000000000000e+00 3.773631170000000257e-01 -1.661917069999999941e-01 1.480789306399999994e+01
3.622317634999999925e+00 0.000000000000000000e+00 0.000000000000000000e+00 4.762268699999999688e-02 3.618112924000000064e+00 0.000000000000000000e+00 4.618835809999999875e-01 1.386274630000000063e-01 1.713942527700000085e+01
3.482872486999999850e+00 0.000000000000000000e+00 0.000000000000000000e+00 1.056814100000000034e-01 3.478046792999999859e+00 0.000000000000000000e+00 3.351316779999999884e-01 -3.421381600000000106e-02 1.712707368099999883e+01
3.800560019000000178e+00 0.000000000000000000e+00 0.000000000000000000e+00 8.536581599999999714e-02 3.856974729000000046e+00 0.000000000000000000e+00 -1.713189980000000001e-01 -1.012893450000000028e-01 1.398539771999999992e+01
3.833751298999999779e+00 0.000000000000000000e+00 0.000000000000000000e+00 -4.544872500000000232e-02 3.881960707999999816e+00 0.000000000000000000e+00 -3.480341379999999929e-01 -7.956935000000000049e-03 1.533452087500000083e+01
3.706282469000000024e+00 0.000000000000000000e+00 0.000000000000000000e+00 1.793820299999999979e-02 3.715305751999999906e+00 0.000000000000000000e+00 -5.180805699999999764e-02 4.216332099999999805e-01 1.558555266199999956e+01
3.442792297000000001e+00 0.000000000000000000e+00 0.000000000000000000e+00 1.890540599999999960e-02 3.536583793999999781e+00 0.000000000000000000e+00 -2.943883200000000158e-02 4.473235170000000038e-01 1.625011326899999986e+01
3.833751298999999779e+00 0.000000000000000000e+00 0.000000000000000000e+00 -4.544872500000000232e-02 3.881960707999999816e+00 0.000000000000000000e+00 -3.480341379999999929e-01 -7.956935000000000049e-03 1.533452087500000083e+01
3.579507442000000150e+00 0.000000000000000000e+00 0.000000000000000000e+00 -4.061483700000000086e-02 3.559939242000000004e+00 0.000000000000000000e+00 1.689019400000000004e-01 2.642935799999999724e-01 1.674830751700000064e+01
3.736440296000000050e+00 0.000000000000000000e+00 0.000000000000000000e+00 1.123140400000000039e-01 3.811702486000000167e+00 0.000000000000000000e+00 1.643469499999999917e-01 -1.102583159999999951e-01 1.629434319099999939e+01
3.790220549999999911e+00 0.000000000000000000e+00 0.000000000000000000e+00 7.730770400000000486e-02 3.747973473000000055e+00 0.000000000000000000e+00 4.419997620000000182e-01 -4.016592130000000149e-01 1.564754845600000088e+01
3.814021845000000077e+00 0.000000000000000000e+00 0.000000000000000000e+00 2.983588000000000125e-03 3.874082878999999924e+00 0.000000000000000000e+00 -4.025053080000000061e-01 1.396368649999999989e-01 1.371699469400000027e+01
3.676018730000000012e+00 0.000000000000000000e+00 0.000000000000000000e+00 3.268367900000000020e-02 3.675058400999999808e+00 0.000000000000000000e+00 2.214863049999999944e-01 7.769529299999999861e-02 1.785506946199999945e+01
3.404703736000000092e+00 0.000000000000000000e+00 0.000000000000000000e+00 1.019338230000000067e-01 3.411514766999999893e+00 0.000000000000000000e+00 1.518140619999999996e-01 -9.047658899999999615e-02 1.100721058399999919e+01
3.814021845000000077e+00 0.000000000000000000e+00 0.000000000000000000e+00 2.983588000000000125e-03 3.874082878999999924e+00 0.000000000000000000e+00 -4.025053080000000061e-01 1.396368649999999989e-01 1.371699469400000027e+01
3.706282469000000024e+00 0.000000000000000000e+00 0.000000000000000000e+00 1.793820299999999979e-02 3.715305751999999906e+00 0.000000000000000000e+00 -5.180805699999999764e-02 4.216332099999999805e-01 1.558555266199999956e+01
3.814021845000000077e+00 0.000000000000000000e+00 0.000000000000000000e+00 2.983588000000000125e-03 3.874082878999999924e+00 0.000000000000000000e+00 -4.025053080000000061e-01 1.396368649999999989e-01 1.371699469400000027e+01
3.845716738000000134e+00 0.000000000000000000e+00 0.000000000000000000e+00 6.659809199999999763e-02 3.750663937000000114e+00 0.000000000000000000e+00 -3.974976350000000158e-01 2.217587870000000128e-01 1.541268910500000011e+01
3.683763749999999781e+00 0.000000000000000000e+00 0.000000000000000000e+00 -2.515846999999999875e-03 3.606587241999999804e+00 0.000000000000000000e+00 1.271105409999999936e-01 -2.866257919999999904e-01 1.491577172500000081e+01
3.442792297000000001e+00 0.000000000000000000e+00 0.000000000000000000e+00 1.890540599999999960e-02 3.536583793999999781e+00 0.000000000000000000e+00 -2.943883200000000158e-02 4.473235170000000038e-01 1.625011326899999986e+01
3.741865933999999783e+00 0.000000000000000000e+00 0.000000000000000000e+00 -8.316788599999999643e-02 3.616230985000000064e+00 0.000000000000000000e+00 7.388668299999999467e-02 2.212203160000000002e-01 1.549742660000000072e+01
3.453480057000000158e+00 0.000000000000000000e+00 0.000000000000000000e+00 3.293870000000000131e-02 3.468666121000000047e+00 0.000000000000000000e+00 -4.476859779999999844e-01 3.838361099999999804e-02 1.711661150100000128e+01
3.482872486999999850e+00 0.000000000000000000e+00 0.000000000000000000e+00 1.056814100000000034e-01 3.478046792999999859e+00 0.000000000000000000e+00 3.351316779999999884e-01 -3.421381600000000106e-02 1.712707368099999883e+01
3.644414171000000202e+00 0.000000000000000000e+00 0.000000000000000000e+00 2.783647200000000099e-02 3.520023114999999869e+00 0.000000000000000000e+00 -2.382783450000000025e-01 3.553162519999999991e-01 1.602078697299999988e+01
3.453480057000000158e+00 0.000000000000000000e+00 0.000000000000000000e+00 3.293870000000000131e-02 3.468666121000000047e+00 0.000000000000000000e+00 -4.476859779999999844e-01 3.838361099999999804e-02 1.711661150100000128e+01
3.828847434000000050e+00 0.000000000000000000e+00 0.000000000000000000e+00 -9.639237300000000341e-02 3.812138007999999800e+00 0.000000000000000000e+00 3.773631170000000257e-01 -1.661917069999999941e-01 1.480789306399999994e+01
3.622317634999999925e+00 0.000000000000000000e+00 0.000000000000000000e+00 4.762268699999999688e-02 3.618112924000000064e+00 0.000000000000000000e+00 4.618835809999999875e-01 1.386274630000000063e-01 1.713942527700000085e+01
3.622317634999999925e+00 0.000000000000000000e+00 0.000000000000000000e+00 4.762268699999999688e-02 3.618112924000000064e+00 0.000000000000000000e+00 4.618835809999999875e-01 1.386274630000000063e-01 1.713942527700000085e+01
3.790220549999999911e+00 0.000000000000000000e+00 0.000000000000000000e+00 7.730770400000000486e-02 3.747973473000000055e+00 0.000000000000000000e+00 4.419997620000000182e-01 -4.016592130000000149e-01 1.564754845600000088e+01
3.644414171000000202e+00 0.000000000000000000e+00 0.000000000000000000e+00 2.783647200000000099e-02 3.520023114999999869e+00 0.000000000000000000e+00 -2.382783450000000025e-01 3.553162519999999991e-01 1.602078697299999988e+01
3.453480057000000158e+00 0.000000000000000000e+00 0.000000000000000000e+00 3.293870000000000131e-02 3.468666121000000047e+00 0.000000000000000000e+00 -4.476859779999999844e-01 3.838361099999999804e-02 1.711661150100000128e+01
3.732377982000000038e+00 0.000000000000000000e+00 0.000000000000000000e+00 -9.454770099999999788e-02 3.639523882999999849e+00 0.000000000000000000e+00 -3.899222000000000105e-02 3.082394310000000082e-01 1.495146494299999951e+01
