-4.106950141000000087e+01
-4.038792150999999819e+01
-3.935675942000000305e+01
-4.041721634000000307e+01
-3.923113956000000258e+01
-3.952104108000000338e+01
-3.831083033000000171e+01
-4.060135042000000283e+01
