7.111410000000000231e+00 3.912430000000000074e+00 3.932679999999999954e+00 3.642149999999999999e+00 1.806300000000000128e-01 3.971649999999999903e+00 1.832200000000000051e+00 7.585779999999999745e+00 5.863620000000000054e+00 1.162209999999999965e+00 2.063480000000000203e+00 3.307809999999999917e+00 2.935610000000000053e+00 1.819229999999999903e+00 5.523609999999999687e+00 7.041360000000000063e+00 6.484040000000000248e+00 6.054120000000000168e+00 5.989729999999999777e+00 3.507870000000000044e+00 1.804820000000000091e+00 7.034559999999999924e+00 6.077799999999999869e+00 2.022089999999999943e+00 4.778900000000000148e+00 7.598950000000000315e+00 2.291690000000000005e+00 1.271989999999999954e+00 1.272620000000000084e+00 7.797390000000000043e+00 7.965999999999999470e-02 8.811400000000000343e-01 2.190280000000000005e+00 1.599220000000000086e+00 5.822090000000000209e+00 7.506000000000000172e-02 6.075580000000000425e+00 3.611470000000000180e+00 6.229680000000000106e+00 5.210600000000000342e+00 1.663600000000000079e-01 6.065330000000000332e+00 5.310000000000000275e-01 7.743970000000000020e+00 3.834400000000000031e+00 4.196679999999999744e+00 3.579450000000000021e+00 2.130599999999999994e-01 1.196159999999999890e+00 3.712250000000000050e+00 7.237870000000000026e+00 5.055899999999999839e-01 2.077659999999999840e+00 5.516329999999999956e+00 1.710150000000000059e+00 4.642909999999999648e+00 5.323019999999999641e+00 4.111589999999999634e+00 5.447860000000000369e+00 2.674999999999999822e+00 8.713800000000000434e-01 4.218989999999999796e+00 2.184250000000000025e+00 7.389050000000000118e+00 7.595979999999999954e+00 4.218999999999999834e-02 5.771300000000000097e+00 1.738010000000000055e+00 4.452099999999999946e-01 2.454779999999999962e+00 7.698820000000000441e+00 2.114100000000000090e+00 5.600459999999999994e+00 2.090590000000000170e+00 4.554899999999999949e+00 3.723980000000000068e+00 2.447690000000000143e+00 2.189119999999999955e+00 3.780879999999999797e+00 3.612070000000000114e+00 4.514829999999999899e+00 5.929649999999999643e+00 6.422850000000000392e+00 4.156970000000000276e+00 4.840499999999999581e+00 5.858699999999999797e+00 1.831200000000000050e-01 3.744400000000000173e+00 7.173100000000000032e-01 2.353099999999999914e-01 2.062450000000000117e+00 5.960790000000000255e+00 3.391430000000000167e+00 4.026320000000000121e+00 5.789710000000000356e+00 5.332270000000000287e+00
4.045960000000000001e+00 2.787580000000000169e+00 3.538370000000000015e+00 6.200300000000000367e+00 4.116489999999999760e+00 6.231539999999999857e+00 8.362399999999999833e-01 1.181170000000000053e+00 6.430430000000000312e+00 6.018869999999999720e+00 1.123960000000000070e+00 3.277219999999999800e+00 3.648979999999999890e+00 6.967459999999999987e+00 2.589150000000000063e+00 1.727759999999999962e+00 4.897420000000000329e+00 4.114399999999999835e+00 1.293590000000000018e+00 2.631619999999999848e+00 4.936289999999999623e+00 2.796549999999999869e+00 3.017699999999999827e-01 5.631140000000000256e+00 7.061420000000000030e+00 8.064299999999999358e+00 4.837060000000000137e+00 4.441999999999999837e-01 3.326820000000000110e+00 7.689320000000000377e+00 3.755059999999999842e+00 4.320710000000000051e+00 7.251859999999999751e+00 4.659849999999999604e+00 7.572309999999999874e+00 4.057520000000000238e+00 5.230399999999999494e-01 7.609490000000000087e+00 3.055489999999999817e+00 2.368090000000000028e+00 1.503619999999999957e+00 5.715500000000000025e-01 2.511700000000000044e-01 1.805749999999999966e+00 2.708880000000000177e+00 4.260700000000000043e-01 1.078299999999999953e-01 9.482199999999999518e-01 5.887489999999999668e+00 5.766910000000000203e+00 4.339990000000000236e+00 4.467039999999999900e+00 6.773769999999999847e+00 5.902029999999999887e+00 6.620120000000000005e+00 3.242509999999999781e+00 3.644559999999999800e+00 4.412230000000000096e+00 7.212199999999999722e-01 2.068579999999999863e+00 4.287169999999999703e+00 2.824510000000000076e+00 5.647499999999999742e-01 6.649280000000000079e+00 2.503839999999999844e+00 1.049840000000000106e+00 5.419970000000000176e+00 5.690399999999999903e-01 7.672480000000000189e+00 1.561520000000000019e+00 6.011730000000000018e+00 5.877930000000000099e+00 1.251999999999999988e-02 4.555460000000000065e+00 1.968129999999999935e+00 6.634940000000000282e+00 1.953959999999999919e+00 5.990000000000000213e+00 1.661240000000000050e+00 6.003899999999999793e+00 1.198720000000000008e+00 6.881039999999999601e+00 6.445420000000000371e+00 2.232930000000000081e+00 2.477559999999999985e+00 3.518170000000000019e+00 1.817760000000000042e+00 4.117890000000000050e+00 2.636229999999999851e+00 5.725909999999999833e+00 2.937749999999999861e+00 7.227590000000000181e+00 7.873470000000000191e+00 2.787520000000000220e+00 8.788700000000000401e-01 3.500210000000000043e+00
4.821500000000000230e-01 2.023579999999999934e+00 2.810569999999999791e+00 2.616229999999999833e+00 1.864270000000000094e+00 6.108999999999999847e-02 1.346410000000000107e+00 6.993109999999999715e+00 1.350399999999999934e-01 2.446979999999999933e+00 4.627670000000000172e+00 7.595139999999999780e+00 4.396200000000000108e-01 7.617270000000000429e+00 3.272450000000000081e+00 5.861550000000000260e+00 7.322020000000000195e+00 8.827099999999999946e-01 3.384999999999999815e-02 1.444790000000000019e+00 4.904770000000000074e+00 4.536089999999999733e+00 1.538459999999999939e+00 4.870770000000000266e+00 2.329569999999999919e+00 4.136799999999999922e-01 2.367220000000000102e+00 9.319800000000000306e-01 6.735430000000000028e+00 5.580420000000000158e+00 2.485250000000000181e+00 3.173719999999999875e+00 5.835479999999999556e+00 2.243100000000000094e-01 1.787609999999999921e+00 5.547299999999999454e-01 2.604929999999999968e+00 2.764769999999999950e+00 3.505900000000000016e+00 5.947479999999999656e+00 3.163889999999999869e+00 3.955779999999999852e+00 3.486069999999999780e+00 7.801309999999999967e+00 6.634339999999999904e+00 4.469339999999999868e+00 4.420910000000000117e+00 2.828059999999999796e+00 7.125849999999999795e+00 5.987599999999999589e+00 7.329799999999999649e+00 4.709270000000000067e+00 1.819320000000000048e+00 2.067499999999999893e+00 6.728449999999999598e+00 7.073809999999999931e+00 4.648249999999999993e+00 4.893839999999999968e+00 5.266180000000000305e+00 3.874099999999999766e-01 7.714929999999999843e+00 3.126900000000000235e-01 7.138490000000000002e+00 6.309709999999999930e+00 2.464329999999999909e+00 6.668520000000000003e+00 2.339539999999999953e+00 7.443800000000000416e-01 5.265080000000000204e+00 4.045200000000000351e+00 7.648310000000000386e+00 3.827700000000000102e+00 4.244720000000000049e+00 3.165919999999999845e+00 7.348399999999999821e+00 2.051229999999999887e+00 5.016689999999999650e+00 2.471670000000000034e+00 7.474870000000000125e+00 5.776259999999999728e+00 1.761490000000000000e+00 3.390179999999999971e+00 6.787790000000000212e+00 1.483209999999999917e+00 6.623920000000000030e+00 3.249960000000000182e+00 1.687519999999999909e+00 2.568740000000000023e+00 6.003269999999999662e+00 4.485009999999999941e+00 6.136899999999999578e-01 4.270080000000000098e+00 8.024499999999999966e-01 7.303209999999999980e+00 4.419609999999999594e+00 5.514680000000000248e+00
2.035719999999999974e+00 1.138749999999999929e+00 4.886079999999999757e+00 3.763189999999999813e+00 5.968989999999999796e+00 6.692070000000000185e+00 7.286570000000000213e+00 3.196349999999999802e+00 4.234280000000000044e+00 5.018519999999999648e+00 7.051420000000000243e+00 4.767459999999999809e+00 3.115940000000000154e+00 1.100270000000000081e+00 1.172060000000000102e+00 3.511060000000000070e+00 7.170999999999999597e-02 3.173210000000000086e+00 7.203269999999999840e+00 1.452860000000000040e+00 6.022059999999999746e+00 4.498129999999999740e+00 1.666600000000000081e+00 5.043479999999999741e+00 6.535859999999999559e+00 2.025139999999999940e+00 8.258400000000000185e-01 6.353279999999999816e+00 5.759030000000000094e+00 2.658599999999999852e+00 5.261969999999999814e+00 4.172259999999999636e+00 1.196919999999999984e+00 2.781540000000000123e+00 3.442009999999999792e+00 1.529500000000000082e+00 1.018869999999999942e+00 4.990940000000000154e+00 2.819440000000000168e+00 1.252600000000000102e-01 3.996960000000000068e+00 4.260999999999999788e-01 1.588279999999999914e+00 6.998619999999999841e+00 6.196349999999999802e+00 4.880930000000000213e+00 4.226549999999999585e+00 3.837009999999999810e+00 6.965830000000000410e+00 6.273979999999999890e+00 1.952500000000000069e-01 2.708680000000000199e+00 3.530009999999999870e+00 3.880419999999999980e+00 6.569589999999999819e+00 3.260339999999999794e+00 2.525049999999999795e+00 1.297320000000000029e+00 7.310450000000000337e+00 1.004820000000000046e+00 4.541890000000000427e+00 2.400589999999999780e+00 7.256949999999999790e+00 1.313269999999999937e+00 4.350270000000000081e+00 6.182120000000000282e+00 1.793959999999999999e+00 1.597790000000000044e+00 7.018189999999999706e+00 7.119790000000000063e+00 6.548219999999999708e+00 5.418110000000000426e+00 4.554560000000000386e+00 2.051010000000000222e+00 2.795409999999999950e+00 3.762459999999999916e+00 6.144700000000000273e+00 1.659909999999999997e+00 1.406560000000000032e+00 1.835309999999999997e+00 2.677680000000000060e+00 6.898089999999999833e+00 9.902800000000000491e-01 3.288069999999999826e+00 5.212799999999999656e+00 6.614000000000000434e-02 9.890999999999999792e-01 2.716509999999999980e+00 5.700879999999999725e+00 4.643740000000000201e+00 1.093800000000000106e+00 7.375589999999999868e+00 3.443680000000000074e+00 6.225670000000000037e+00 4.335370000000000168e+00 5.842959999999999710e+00
1.109669999999999934e+00 2.015320000000000000e+00 2.757350000000000190e+00 7.071110000000000007e+00 5.907939999999999969e+00 1.973829999999999973e+00 7.384319999999999773e+00 3.264689999999999870e+00 6.535490000000000244e+00 2.912949999999999928e+00 6.839900000000000091e+00 5.418759999999999799e+00 6.855579999999999785e+00 3.451480000000000103e+00 3.969869999999999788e+00 6.382499999999999840e-01 7.624719999999999942e+00 3.658370000000000122e+00 2.962769999999999904e+00 2.442530000000000090e+00 4.125429999999999708e+00 4.918490000000000251e+00 2.682949999999999946e+00 5.293510000000000382e+00 5.073229999999999684e+00 2.113490000000000091e+00 3.034199999999999786e+00 4.353159999999999918e+00 7.554920000000000080e+00 1.383189999999999920e+00 6.489849999999999675e+00 1.833200000000000107e-01 7.550989999999999647e+00 6.162800000000000500e-01 4.668440000000000367e+00 3.783900000000000041e-01 3.654869999999999841e+00 -1.230000000000000017e-02 7.264980000000000437e+00 1.707649999999999890e+00 6.566999999999999504e-01 5.623730000000000118e+00 9.920200000000000129e-01 4.998269999999999769e+00 4.982709999999999972e+00 5.723399999999999599e-01 6.719509999999999650e+00 6.967039999999999900e+00 4.899130000000000429e+00 4.671920000000000073e+00 6.800670000000000215e+00 5.029560000000000031e+00 4.518500000000000405e+00 1.149359999999999937e+00 4.320850000000000080e+00 4.241550000000000153e+00 3.641230000000000189e+00 2.641859999999999875e+00 5.801309999999999967e+00 2.899249999999999883e+00 1.111569999999999947e+00 1.262240000000000029e+00 7.791850000000000165e+00 2.751110000000000166e+00 2.551439999999999930e+00 7.316370000000000040e+00 3.507140000000000146e+00 5.076670000000000016e+00 5.586380000000000123e+00 2.692880000000000162e+00 5.841029999999999944e+00 5.909600000000000408e-01 4.809529999999999639e+00 2.206729999999999858e+00 7.652110000000000412e+00 7.139630000000000365e+00 1.489179999999999948e+00 5.058819999999999872e+00 1.808170000000000055e+00 7.741590000000000416e+00 1.428169999999999940e+00 1.150800000000000045e+00 4.081310000000000215e+00 2.903820000000000068e+00 3.356189999999999785e+00 2.623240000000000016e+00 1.726339999999999986e+00 5.194659999999999833e+00 7.021329999999999849e+00 3.967519999999999936e+00 6.792819999999999858e+00 2.771700000000000053e+00 9.848500000000000032e-01 6.656200000000000117e+00 5.719899999999999984e-01 2.824120000000000186e+00
2.062840000000000007e+00 1.103909999999999947e+00 4.926400000000000112e+00 3.663359999999999950e+00 5.907149999999999679e+00 6.791879999999999917e+00 7.209500000000000242e+00 3.238579999999999792e+00 4.345130000000000159e+00 4.998730000000000118e+00 7.011910000000000309e+00 4.807649999999999757e+00 3.012259999999999938e+00 1.108260000000000023e+00 1.213200000000000056e+00 3.701659999999999950e+00 8.930000000000000437e-03 3.306259999999999977e+00 7.094940000000000246e+00 1.403510000000000035e+00 5.990219999999999878e+00 4.495459999999999567e+00 1.769770000000000065e+00 5.068850000000000300e+00 6.469409999999999883e+00 1.970320000000000071e+00 9.260099999999999998e-01 6.421829999999999927e+00 5.647509999999999586e+00 2.742179999999999840e+00 5.215690000000000381e+00 4.407549999999999635e+00 1.258170000000000011e+00 2.583590000000000053e+00 3.405800000000000161e+00 1.385920000000000041e+00 9.859299999999999731e-01 5.033859999999999779e+00 2.844359999999999999e+00 2.075200000000000100e-01 3.986139999999999795e+00 4.475700000000000234e-01 1.699770000000000003e+00 7.100550000000000139e+00 6.125949999999999562e+00 4.934520000000000017e+00 4.104870000000000019e+00 3.901199999999999779e+00 6.941989999999999661e+00 6.143559999999999910e+00 1.583600000000000008e-01 2.728619999999999823e+00 3.561049999999999827e+00 3.971029999999999838e+00 6.632629999999999804e+00 3.151229999999999976e+00 2.325730000000000075e+00 1.324319999999999942e+00 7.318489999999999718e+00 9.548100000000000476e-01 4.483760000000000190e+00 2.477899999999999991e+00 7.194799999999999862e+00 1.406349999999999989e+00 4.296899999999999942e+00 5.954939999999999678e+00 1.730509999999999993e+00 1.640069999999999917e+00 7.058029999999999582e+00 7.334570000000000256e+00 6.513219999999999565e+00 5.345850000000000435e+00 4.585530000000000328e+00 2.078370000000000051e+00 2.604960000000000164e+00 3.653119999999999923e+00 6.164310000000000400e+00 1.643620000000000081e+00 1.386959999999999971e+00 1.840349999999999930e+00 2.683289999999999953e+00 6.695079999999999920e+00 8.612999999999999545e-01 3.252120000000000122e+00 5.322269999999999612e+00 2.302899999999999947e-01 9.666400000000000547e-01 2.846010000000000151e+00 5.826089999999999769e+00 4.621179999999999843e+00 1.127199999999999980e+00 7.269350000000000200e+00 3.606409999999999894e+00 6.188279999999999781e+00 4.434510000000000396e+00 5.866060000000000052e+00
3.550800000000000067e-01 1.881119999999999903e+00 3.218300000000000050e-01 4.198629999999999640e+00 4.983299999999999841e+00 5.651860000000000106e+00 6.245280000000000165e+00 4.010740000000000194e+00 4.638289999999999580e+00 7.097909999999999719e+00 4.035440000000000360e+00 2.323049999999999837e+00 4.484029999999999738e+00 3.766589999999999883e+00 2.919979999999999798e+00 6.338530000000000442e+00 4.246690000000000076e+00 2.837100000000000177e-01 3.222780000000000200e+00 4.987800000000000011e-01 7.975719999999999921e+00 3.043149999999999800e+00 1.755929999999999991e+00 2.516640000000000210e+00 5.135019999999999918e+00 9.363099999999999756e-01 3.708870000000000111e+00 -2.181599999999999928e-01 5.375880000000000436e+00 6.759120000000000239e+00 7.538350000000000328e+00 7.768169999999999575e+00 6.879710000000000214e+00 5.992849999999999788e+00 1.873329999999999940e+00 1.693319999999999936e+00 1.508019999999999916e+00 7.754129999999999967e+00 3.676509999999999945e+00 7.384319999999999773e+00 3.526000000000000245e-01 3.063480000000000203e+00 2.291329999999999867e+00 3.972069999999999990e+00 2.050199999999999800e+00 3.057539999999999925e+00 5.957089999999999996e+00 6.404999999999999583e-02 1.607969999999999899e+00 3.885099999999999998e+00 7.496190000000000353e+00 5.846720000000000361e+00 6.093239999999999768e+00 3.147339999999999804e+00 3.570199999999999818e+00 7.254819999999999602e+00 5.085300000000000153e+00 7.052480000000000082e+00 6.555360000000000298e+00 1.054030000000000022e+00 2.461699999999999999e-01 2.386169999999999902e+00 3.833979999999999944e+00 5.044399999999999995e-01 5.623470000000000191e+00 3.938019999999999854e+00 5.067689999999999806e+00 6.288090000000000401e+00 7.626660000000000217e+00 4.193539999999999601e+00 3.637630000000000141e+00 1.200999999999999984e-02 -1.273799999999999932e-01 2.952679999999999971e+00 6.129470000000000418e+00 4.915980000000000238e+00 1.279859999999999998e+00 6.570809999999999818e+00 8.098899999999999988e-01 5.680530000000000079e+00 9.928900000000000503e-01 3.218500000000000139e+00 6.207139999999999880e+00 2.611340000000000217e+00 1.837309999999999999e+00 3.852520000000000167e+00 5.207049999999999734e+00 2.048239999999999839e+00 1.614659999999999984e+00 6.074650000000000105e+00 1.354649999999999910e+00 4.857999999999999818e-02 1.132090000000000041e+00 3.949910000000000032e+00 2.854330000000000034e+00 5.155739999999999768e+00
6.889090000000000380e+00 2.098200000000000065e-01 6.779539999999999900e+00 7.245149999999999757e+00 2.175469999999999793e+00 2.970849999999999991e+00 3.724540000000000184e+00 5.650229999999999642e+00 6.286669999999999980e+00 3.314239999999999853e+00 2.787220000000000031e+00 5.348869999999999791e+00 5.739379999999999704e+00 4.376640000000000086e+00 4.667539999999999800e+00 6.664550000000000196e+00 6.486819999999999808e+00 4.654560000000000031e+00 4.361410000000000231e+00 6.101589999999999847e+00 3.638259999999999827e+00 4.031240000000000379e+00 6.053100000000000147e-01 1.966990000000000016e+00 3.182449999999999779e+00 5.050150000000000361e+00 4.688999999999999835e-01 5.282390000000000363e+00 1.807860000000000023e+00 6.405359999999999943e+00 7.151709999999999567e+00 2.920300000000000118e+00 6.487800000000000233e-01 1.635059999999999958e+00 3.654539999999999900e+00 7.207060000000000244e+00 3.597259999999999902e+00 4.554699999999999860e-01 4.946259999999999657e+00 5.236229999999999940e+00 4.146309999999999718e+00 7.409559999999999924e+00 5.729169999999999874e+00 1.006459999999999910e+00 1.107429999999999914e+00 -9.060000000000000345e-03 5.080589999999999939e+00 6.322029999999999816e+00 3.443499999999999894e-01 5.829449999999999577e+00 8.852400000000000269e-01 2.310220000000000162e+00 1.302939999999999987e+00 6.660350000000000215e+00 4.347400000000000153e-01 2.918470000000000120e+00 4.958090000000000330e+00 3.488370000000000193e+00 2.574580000000000091e+00 1.372770000000000046e+00 2.220060000000000144e+00 2.205210000000000115e+00 3.472649999999999793e+00 2.748569999999999958e+00 7.311659999999999826e+00 8.792100000000000470e-01 5.168199999999999683e+00 6.366080000000000183e+00 6.887699999999999934e-01 3.363579999999999792e+00 4.241850000000000342e+00 3.330080000000000151e+00 6.445619999999999905e+00 7.183440000000000047e+00 2.471979999999999844e+00 7.271900000000000031e-01 4.142789999999999750e+00 2.613199999999999967e+00 1.955230000000000024e+00 5.074760000000000382e+00 4.944549999999999557e+00 1.162849999999999939e+00 7.343410000000000437e+00 5.566449999999999676e+00 1.531320000000000014e+00 6.708919999999999995e+00 3.006540000000000212e+00 5.315719999999999779e+00 4.563419999999999810e+00 2.362880000000000091e+00 1.352729999999999988e+00 1.405410000000000048e+00 7.322800000000000420e-01 4.776159999999999961e+00 1.946690000000000031e+00 3.507600000000000051e+00
8.211000000000000243e-02 2.913289999999999935e+00 4.557220000000000049e+00 1.949299999999999922e-01 7.051449999999999996e+00 1.938909999999999911e+00 4.219200000000000172e-01 3.995709999999999873e+00 7.057879999999999932e+00 3.874359999999999804e+00 6.862930000000000419e+00 4.486119999999999663e+00 5.885740000000000194e+00 6.168660000000000032e+00 2.055359999999999854e+00 2.102390000000000203e+00 9.838099999999999623e-01 2.364320000000000199e+00 5.113050000000000317e+00 2.791160000000000085e+00 2.114669999999999828e+00 1.400570000000000093e+00 1.146230000000000082e+00 6.681259999999999977e+00 5.506599999999999717e+00 3.022740000000000204e+00 4.654139999999999944e+00 3.012329999999999952e+00 2.782960000000000100e+00 1.111820000000000030e+00 4.873980000000000423e+00 6.916470000000000340e+00 7.990639999999999965e+00 9.895599999999999952e-01 6.529800000000000049e-01 4.196990000000000443e+00 4.079139999999999766e+00 3.253810000000000091e+00 6.731889999999999930e+00 5.098270000000000302e+00 4.428609999999999935e+00 5.903500000000000414e-01 8.077800000000000535e-01 6.713280000000000136e+00 6.717749999999999666e+00 7.016269999999999563e+00 1.811669999999999892e+00 6.453000000000000291e+00 7.080370000000000275e+00 5.777199999999999669e+00 1.066899999999999932e-01 6.658520000000000216e+00 5.348230000000000040e+00 5.717880000000000074e+00 4.696259999999999657e+00 6.467100000000000071e-01 6.241389999999999993e+00 3.681319999999999926e+00 8.729099999999999637e-01 2.940699999999999981e-01 2.751759999999999984e+00 3.357530000000000125e+00 3.675730000000000164e+00 3.772670000000000190e+00 5.010979999999999990e+00 2.552259999999999973e+00 2.529650000000000176e+00 4.505040000000000155e+00 5.474999999999999645e+00 6.959660000000000402e+00 2.630419999999999980e+00 9.220599999999999907e-01 5.884850000000000136e+00 8.040050000000000807e+00 1.916090000000000071e+00 6.138189999999999813e+00 7.028850000000000264e+00 4.127019999999999911e+00 2.299240000000000173e+00 6.363030000000000186e+00 4.783499999999999974e-01 6.938970000000000304e+00 7.856359999999999566e+00 7.441440000000000055e+00 1.006219999999999892e+00 4.769330000000000069e+00 1.525560000000000027e+00 1.666719999999999979e+00 6.102610000000000312e+00 3.767009999999999970e+00 6.859779999999999767e+00 4.785759999999999792e+00 3.066980000000000040e+00 4.701159999999999783e+00 8.696399999999999686e-01 3.789460000000000051e+00
3.463309999999999889e+00 5.676669999999999661e+00 3.657840000000000202e+00 5.206179999999999808e+00 1.261830000000000007e+00 6.675399999999999778e+00 5.400599999999999845e-01 2.364160000000000039e+00 5.069779999999999731e+00 4.113900000000000112e+00 2.050990000000000091e+00 4.520220000000000127e+00 4.091190000000000104e+00 3.877700000000000036e-01 2.347000000000000128e-02 4.417019999999999946e+00 7.745029999999999859e+00 1.850629999999999997e+00 2.297709999999999919e+00 4.652650000000000396e+00 7.564739999999999576e+00 2.376030000000000086e+00 2.431369999999999809e+00 8.173890000000000100e+00 6.785910000000000331e+00 2.845959999999999823e+00 2.566460000000000186e+00 6.553200000000000136e-01 4.606530000000000236e+00 4.265419999999999767e+00 6.992820000000000036e+00 4.476299999999999724e-01 2.866379999999999928e+00 7.806239999999999846e+00 4.753949999999999676e+00 1.580589999999999939e+00 1.731749999999999901e+00 5.895399999999999530e-01 1.077309999999999990e+00 2.732569999999999943e+00 5.145609999999999573e+00 1.499710000000000099e+00 2.103700000000000014e-01 4.139190000000000147e+00 6.697230000000000238e+00 3.222989999999999799e+00 1.609629999999999894e+00 2.514670000000000183e+00 2.850890000000000146e+00 6.280269999999999797e+00 5.888130000000000308e+00 5.224899999999999878e+00 2.092490000000000183e+00 1.107839999999999936e+00 7.342559999999999754e+00 6.288800000000000168e+00 5.247289999999999566e+00 1.178690000000000015e+00 6.521090000000000053e+00 2.936020000000000074e+00 6.277899999999999592e-01 8.101250000000000284e+00 6.742709999999999759e+00 4.347680000000000433e+00 3.875480000000000036e+00 2.925809999999999800e+00 4.811040000000000205e+00 7.656789999999999985e+00 4.558830000000000382e+00 1.023050000000000015e+00 3.177490000000000148e+00 1.399410000000000043e+00 6.742790000000000283e+00 5.434680000000000177e+00 7.663940000000000197e+00 6.355290000000000106e+00 7.915219999999999700e+00 7.982339999999999769e+00 9.120399999999999618e-01 6.341770000000000351e+00 2.479500000000000037e-01 4.971379999999999910e+00 5.158549999999999969e+00 5.358000000000000540e-01 2.795040000000000191e+00 7.007039999999999935e+00 8.345980000000000842e+00 5.056720000000000326e+00 6.263390000000000235e+00 6.765859999999999985e+00 7.581940000000000346e+00 2.276839999999999975e+00 8.061320000000000263e+00 6.213219999999999743e+00 5.037759999999999572e+00 3.578899999999999970e+00
4.343709999999999738e+00 5.643709999999999560e+00 6.582889999999999908e+00 3.766989999999999839e+00 2.058510000000000062e+00 3.258989999999999831e+00 2.969200000000000172e-01 5.302940000000000431e+00 3.149719999999999853e+00 6.271110000000000184e+00 5.476899999999999658e+00 3.049609999999999932e+00 1.257079999999999975e+00 1.679499999999999993e+00 2.580690000000000150e+00 5.330580000000000318e+00 7.080969999999999764e+00 8.252699999999999481e-01 6.180340000000000167e+00 1.462849999999999984e+00 4.571189999999999642e+00 5.016100000000000003e-01 4.112260000000000026e+00 5.507069999999999688e+00 7.867519999999999847e+00 6.531390000000000029e+00 6.906719999999999970e+00 7.967620000000000147e+00 7.818880000000000052e+00 2.494139999999999802e+00 4.049439999999999706e+00 1.611339999999999995e+00 5.777309999999999945e+00 1.522000000000000020e-01 2.847299999999999831e-01 3.523899999999999810e-01 6.191980000000000040e+00 8.094070000000000320e+00 6.640970000000000262e+00 2.348510000000000097e+00 8.068360000000000198e+00 2.646189999999999820e+00 4.821419999999999817e+00 1.367429999999999923e+00 7.980940000000000367e+00 1.370689999999999964e+00 6.208000000000000185e+00 1.258350000000000080e+00 2.358210000000000139e+00 7.583420000000000272e+00 7.912829999999999586e+00 4.849070000000000213e+00 1.255000000000000039e-02 2.863259999999999916e+00 5.176870000000000083e+00 6.710659999999999847e+00 4.894330000000000069e+00 2.074409999999999865e+00 5.246199999999999974e+00 7.338470000000000049e+00 6.968340000000000423e+00 5.158419999999999561e+00 3.610400000000000276e-01 5.395480000000000054e+00 3.537830000000000030e+00 5.153470000000000439e+00 5.844780000000000086e+00 4.037270000000000358e+00 1.931429999999999980e+00 7.091580000000000439e+00 3.466159999999999908e+00 3.765260000000000051e+00 7.261190000000000033e+00 7.297579999999999956e+00 4.639540000000000219e+00 7.190780000000000172e+00 2.494409999999999794e+00 6.601329999999999920e+00 4.149549999999999628e+00 3.919989999999999863e+00 5.023400000000000087e-01 6.978199999999999958e-01 3.684719999999999995e+00 3.564800000000000191e-01 3.234820000000000029e+00 7.928740000000000343e+00 5.068080000000000140e+00 8.184500000000000108e-01 9.302500000000000213e-01 4.565489999999999604e+00 1.820370000000000044e+00 2.191850000000000076e+00 6.805430000000000312e+00 6.860120000000000218e+00 2.335189999999999877e+00 1.458930000000000060e+00
5.013800000000000479e-01 2.122609999999999886e+00 1.302899999999999947e+00 3.822410000000000085e+00 7.448959999999999582e+00 6.217539999999999623e+00 7.424159999999999648e+00 3.286430000000000184e+00 2.859799999999999898e+00 6.076080000000000148e+00 9.579999999999999627e-01 6.809610000000000163e+00 5.829139999999999766e+00 3.043140000000000178e+00 4.772129999999999761e+00 5.386639999999999873e+00 5.903539999999999566e+00 5.102190000000000225e+00 2.776190000000000158e+00 4.153800000000000381e+00 5.971289999999999765e+00 9.841100000000000403e-01 6.189759999999999707e+00 1.775419999999999998e+00 5.228360000000000340e+00 3.796359999999999957e+00 6.356060000000000265e+00 6.018270000000000231e+00 3.402289999999999814e+00 2.403700000000000003e-01 6.943410000000000082e+00 3.912000000000000199e-02 8.019699999999999607e-01 5.753409999999999691e+00 5.015839999999999854e+00 1.874959999999999960e+00 7.641759999999999664e+00 6.722730000000000317e+00 6.263099999999999667e+00 1.948930000000000051e+00 7.075840000000000352e+00 4.607000000000000206e+00 6.870199999999999640e-01 4.127390000000000114e+00 1.013000000000000012e-01 1.809620000000000006e+00 7.814000000000000112e-02 7.395789999999999864e+00 5.346849999999999881e+00 5.852140000000000342e+00 7.265360000000000262e+00 1.817139999999999977e+00 2.496729999999999894e+00 3.870010000000000172e+00 3.982520000000000060e+00 4.378090000000000259e+00 4.748100000000000098e-01 4.284119999999999706e+00 6.037600000000000300e+00 3.171009999999999884e+00 2.514400000000000190e+00 2.429099999999999870e-01 1.515679999999999916e+00 1.980140000000000011e+00 5.699370000000000047e+00 7.374209999999999710e+00 4.426199999999999690e+00 8.673000000000000154e-02 3.538499999999999979e-01 3.849920000000000009e+00 3.452970000000000095e+00 3.699619999999999909e+00 2.615940000000000154e+00 2.229280000000000150e+00 7.674979999999999691e+00 3.428100000000000036e-01 2.691600000000000104e-01 3.573869999999999880e+00 1.827830000000000066e+00 4.428609999999999935e+00 2.630479999999999929e+00 5.293090000000000295e+00 2.029689999999999994e+00 1.930900000000000061e+00 3.821629999999999860e+00 3.026800000000000046e-01 3.396790000000000198e+00 4.244999999999999885e-01 1.851120000000000099e+00 5.987210000000000143e+00 7.397039999999999615e+00 4.286590000000000344e+00 5.564849999999999852e+00 3.959029999999999827e+00 2.126590000000000202e+00 5.849330000000000140e+00