-4.272489999999999899e-01 4.718700000000000117e-01 1.177176999999999918e+00 -6.078390000000000182e-01 5.812060000000000004e-01 3.704394000000000187e+00 -1.992180000000000062e-01 -1.454542000000000002e+00 6.489460000000000228e-01 4.275299000000000404e+00 4.732124999999999915e+00 2.240419000000000160e+00 2.016169999999999907e-01 2.656350000000000100e-01 1.235179999999999945e+00 1.468599999999999905e+00 -1.332460999999999895e+00 4.040449999999999875e-01 3.750080000000000080e-01 1.290993999999999975e+00 8.340880000000000516e-01 -2.259029999999999927e-01 1.479630000000000112e-01 -2.090839999999999921e-01 3.277001999999999970e+00 6.705839999999999579e-01 -3.127177000000000096e+00 8.227729999999999766e-01 1.192458000000000018e+00 1.838480000000000114e-01 -5.144312000000000218e+00 -1.369269999999999932e-01 -8.522679000000000116e+00 1.713709999999999956e-01 9.754089999999999705e-01 3.058919999999999972e-01 -3.558900000000000258e-02 6.682329999999999659e-01 7.820240000000000524e-01 -5.826500000000000012e-01 3.852849999999999886e-01 6.650179999999999980e-01 4.749700000000000033e-01 -4.095079000000000136e+00 5.764648000000000216e+00 -7.398439999999999461e-01 1.049459999999999976e-01 -1.165000999999999953e+00 -4.473210000000000242e-01 -1.294459999999999944e+00 1.410352999999999968e+00 -8.569390000000000063e-01 -3.391099999999999670e-02 7.087029999999999719e-01 -1.473559999999999870e-01 4.462949999999999973e-01 -7.141790000000000083e-01 1.039644000000000013e+00 -1.563320999999999961e+00 -6.238129999999999509e-01 1.146954000000000029e+00 -3.137329999999999841e-01 -1.553717000000000015e+00 -1.597682999999999964e+00 -6.918450000000000433e-01 5.636309999999999931e-01 1.044043999999999972e+00 -8.710849999999999982e-01 -7.266160000000000396e-01 -1.726669999999999927e+00 1.254831999999999947e+00 -2.494047999999999821e+00 -7.645100000000000506e-02 -1.120668999999999915e+00 -8.991160000000000263e-01 -2.015379999999999949e-01 -6.503750000000000364e-01 8.099100000000000188e-01 3.990830000000000211e-01 8.099680000000000213e-01 -1.063131000000000048e+00 -2.116609999999999880e-01 1.116859999999999936e-01 -1.328999999999999959e+00 4.107560000000000100e-01 7.882339999999999902e-01 -1.402239999999999875e-01 -1.006900000000000017e-01 -4.257369999999999766e-01 -1.018661000000000039e+00 -1.181796000000000069e+00 -1.152865999999999946e+00 1.222779000000000060e+00 -5.964120000000000532e-01 2.392890000000000017e-01 9.253909999999999636e-01
5.345900000000000096e-01 1.042262000000000022e+00 -1.443367000000000067e+00 -5.263029999999999653e-01 1.182401000000000035e+00 1.411759999999999959e-01 -9.566080000000000139e-01 -1.711643000000000026e+00 2.246170999999999918e+00 2.279450999999999894e+00 4.860260000000000136e-01 9.381129999999999747e-01 -5.255209999999999937e+00 -4.781520000000000437e+00 -6.051820000000000199e+00 2.991210000000000258e-01 -1.266043999999999947e+00 -2.946013000000000215e+00 6.451510000000000300e-01 1.336573000000000011e+00 -1.481851999999999947e+00 4.179340000000000277e-01 -4.828879999999999839e-01 1.312615000000000087e+00 2.890739999999999976e-01 -9.327090000000000103e-01 1.212153000000000036e+00 1.475090000000000012e-01 -1.686999999999999915e-03 -5.289399999999999658e-02 -7.467089999999999561e-01 1.804877000000000065e+00 -1.150449999999999945e-01 3.860174000000000216e+00 4.718420000000000059e+00 2.872781999999999947e+00 1.947478000000000042e+00 -2.946759999999999935e-01 1.603777999999999926e+00 -5.304410000000000514e-01 -4.571580000000000088e-01 -3.875529999999999808e-01 1.157931999999999961e+00 3.693330000000000224e-01 -8.085000000000000173e-03 -2.148009999999999919e-01 8.235599999999999865e-02 -1.623105999999999938e+00 1.288961000000000023e+00 -1.843342999999999954e+00 -9.056599999999999373e-02 -5.374719999999999498e-01 -1.912142999999999926e+00 4.531743999999999772e+00 3.564799999999999913e-02 1.804915000000000047e+00 7.236270000000000202e-01 -6.346399999999999819e-01 1.163126000000000104e+00 -4.801572000000000173e+00 1.192962000000000078e+00 -5.827130000000000365e-01 -1.984000000000000000e-02 1.245580000000000020e-01 -1.801590000000000136e-01 -1.711469999999999936e-01 -3.759990000000000276e-01 -9.392399999999999360e-02 -1.615129999999999899e-01 2.068379999999999941e-01 1.666762999999999995e+00 2.548645000000000049e+00 2.773519999999999874e-01 -1.755880000000000107e+00 3.206129999999999813e-01 1.387420000000000042e-01 -6.759239999999999693e-01 -9.062900000000000122e-02 7.252400000000000513e-02 -1.223100000000000055e-02 1.813960000000000017e-01 -1.574184999999999945e+00 5.866670000000000496e-01 -4.209919999999999773e-01 -1.210110000000000019e+00 9.445759999999999712e-01 4.682069999999999843e-01 1.692670000000000008e-01 -8.998420000000000307e-01 1.259622000000000019e+00 2.389999999999999902e-01 2.130839999999999956e-01 -2.457799999999999985e-01 -2.761786999999999992e+00 4.831039999999999779e-01 -2.488660000000000039e-01
-1.057600000000000033e-02 6.818969999999999754e-01 -3.658359999999999945e-01 -5.993410000000000126e-01 -5.394459999999999811e-01 4.223230000000000040e-01 7.670660000000000256e-01 1.051279999999999992e-01 8.301060000000000105e-01 9.703460000000000418e-01 1.506399000000000044e+00 9.638099999999999445e-02 7.202669999999999906e-01 -2.465839999999999976e-01 -9.455440000000000511e-01 -7.220480000000000231e-01 1.864829000000000070e+00 9.313010000000000455e-01 -7.660270000000000135e-01 9.707799999999999763e-02 1.380184000000000077e+00 5.032999999999999696e-01 9.317959999999999576e-01 9.624359999999999582e-01 -2.353020000000000111e-01 2.311776000000000053e+00 -1.697770000000000112e-01 -1.339874000000000009e+00 4.010759999999999881e-01 1.705367999999999995e+00 -6.568220000000000169e-01 -3.980480000000000129e-01 -7.426490000000000036e-01 1.479562999999999962e+00 4.422685000000000421e+00 4.106189999999999785e+00 7.332300000000000484e-01 4.163000000000000034e-02 -3.195910000000000140e-01 1.119547999999999988e+00 -7.145420000000000105e-01 8.063700000000000312e-01 2.159353999999999996e+00 -2.329937000000000147e+00 2.543445000000000178e+00 -7.968760000000000288e-01 7.256829999999999670e-01 -7.887119999999999687e-01 -3.117500000000000132e-02 -9.718299999999999716e-01 -1.136428999999999911e+00 -5.990109999999999602e-01 -2.892379999999999951e-01 1.853490000000000137e-01 -2.360643000000000047e+00 -4.348890000000000255e-01 1.101836999999999955e+00 6.025880000000000125e-01 4.442100000000000215e-02 3.508680000000000132e-01 -2.233845000000000081e+00 -4.267373000000000083e+00 -5.480875000000000163e+00 9.591119999999999646e-01 -2.915630000000000166e-01 -1.888400000000000079e-01 -2.606578999999999979e+00 1.575585999999999931e+00 -2.676594999999999835e+00 9.102120000000000211e-01 -6.819020000000000081e-01 -6.956529999999999658e-01 6.635999999999999677e-01 -8.340840000000000476e-01 -9.472300000000000164e-02 -1.686769999999999936e-01 -8.041800000000000337e-02 -2.552559999999999829e-01 -1.702266000000000057e+00 2.213760999999999868e+00 2.304098999999999897e+00 1.383099999999999996e+00 -1.219742000000000104e+00 -7.913750000000000506e-01 -1.408938999999999941e+00 5.706430000000000113e-01 -3.843750000000000222e-01 1.933700999999999892e+00 -1.288531000000000093e+00 -5.440819999999999546e-01 8.294070000000000054e-01 -3.010775999999999897e+00 -1.958939999999999904e+00 5.036070000000000269e-01 1.045129999999999948e-01 -1.870060000000000056e-01
5.955300000000000038e-01 1.024132999999999960e+00 -7.964369999999999505e-01 7.475800000000000223e-01 -1.841230000000000089e-01 1.005551000000000084e+00 4.596019000000000077e+00 -4.740199999999999969e-01 7.829048000000000229e+00 -3.644129999999999869e-01 -5.677510000000000057e-01 6.768200000000000605e-02 1.288509999999999933e-01 -2.866219999999999879e-01 -1.222677000000000014e+00 -6.730169999999999764e-01 -3.728469999999999840e-01 1.173216000000000037e+00 -6.462480000000000446e-01 -2.496929999999999983e-01 -2.266680000000000084e-01 2.228219999999999923e-01 1.757630000000000026e-01 3.180000000000000049e-01 4.596580000000000110e-01 -2.378721999999999781e+00 -2.057592000000000088e+00 -4.508000000000000201e-02 1.392349000000000059e+00 1.751199999999999979e-01 -2.228931000000000218e+00 2.010688000000000031e+00 -2.260097000000000023e+00 1.072390000000000010e-01 1.006977000000000011e+00 -1.108651000000000053e+00 4.706710000000000060e-01 -3.124609999999999888e-01 -3.783079999999999776e-01 3.489010000000000167e-01 -1.682200000000000015e-02 6.222309999999999786e-01 3.078810000000000158e-01 8.509099999999999997e-02 1.190412999999999943e+00 -1.299160000000000037e-01 1.021163000000000043e+00 6.288139999999999841e-01 -6.091349999999999820e-01 -2.997650000000000037e-01 -4.063869999999999982e-01 -9.127840000000000398e-01 -1.149262000000000006e+00 9.165320000000000134e-01 -2.157949999999999868e-01 7.979530000000000234e-01 -4.383519999999999861e+00 2.416139999999999954e-01 -1.412999999999999977e-03 3.933349999999999902e-01 -5.322569999999999801e-01 -2.615149999999999975e-01 3.657300000000000134e-02 3.799520000000000119e-01 1.875489999999999935e-01 -9.221740000000000492e-01 -2.017809999999999881e-01 1.232663000000000064e+00 1.673332999999999959e+00 4.342200000000000226e-02 -2.470279999999999976e-01 -7.143650000000000277e-01 4.576839999999999797e-01 7.597409999999999997e-01 -1.149934999999999929e+00 -6.908590000000000009e-01 -1.570564000000000071e+00 -3.180350000000000121e-01 -3.299900000000000055e-01 8.412760000000000238e-01 -8.482800000000000340e-01 -2.158678000000000097e+00 -6.275709999999999900e-01 2.911540000000000239e-01 6.719939999999999802e-01 -7.769399999999999917e-02 -6.347099999999999964e-02 4.126770000000000160e-01 5.040139999999999620e-01 -1.292745999999999951e+00 2.035679999999999990e-01 -2.271161000000000207e+00 1.128600000000000020e-01 -6.571810000000000151e-01 3.096690000000000276e-01 1.715479999999999894e+00
-6.521329999999999627e-01 -3.348465000000000025e+00 -7.599160000000000359e-01 -3.769850000000000145e-01 6.757199999999999873e-01 6.250790000000000513e-01 -4.311369999999999925e-01 1.250489999999999935e-01 -5.026389999999999469e-01 -2.243237000000000148e+00 5.820395999999999681e+00 -2.474955000000000016e+00 -6.138780000000000348e-01 1.031841000000000008e+00 -2.398009999999999864e-01 2.034276000000000195e+00 -1.980218000000000034e+00 8.720560000000000533e-01 -1.510157999999999889e+00 -5.910009999999999986e-01 8.170450000000000212e-01 6.662860000000000449e-01 -1.977399999999999991e-01 1.631577000000000055e+00 5.611709999999999754e-01 -6.196890000000000454e-01 -4.118160000000000154e-01 1.036313000000000040e+00 -2.573280000000000012e-01 1.509297000000000111e+00 -6.569829999999999837e-01 4.844709999999999850e-01 2.282379999999999964e-01 5.727229999999999821e-01 -5.093500000000000111e-02 2.864200000000000079e-02 -1.936039999999999983e-01 1.209565000000000001e+00 1.782370000000000065e-01 -8.593900000000000150e-02 1.560302999999999995e+00 -2.206800000000000081e-02 2.209399999999999906e-02 5.885519999999999641e-01 9.835390000000000521e-01 7.241480000000000139e-01 -4.882500000000000173e-01 8.691799999999999526e-02 5.507133999999999752e+00 -1.315493000000000023e+00 3.688756999999999842e+00 -1.877200000000000049e-02 1.405849999999999878e-01 1.573916000000000093e+00 8.114740000000000286e-01 1.431038000000000032e+00 -1.286543999999999910e+00 5.033710000000000129e-01 1.310230999999999923e+00 9.846850000000000325e-01 -1.866509999999999891e+00 -7.942740000000000355e-01 9.643049999999999677e-01 -1.017889999999999961e+00 2.173878000000000199e+00 -1.913659999999999917e+00 -3.368758000000000141e+00 -6.037789000000000073e+00 -3.250808000000000142e+00 9.763969999999999594e-01 -1.090961999999999987e+00 -1.636910000000000087e+00 2.982448000000000210e+00 -7.255470000000000530e-01 1.669140000000000068e-01 -2.814519999999999800e-01 -1.649199999999999999e+00 1.913529999999999953e-01 -6.071210000000000218e-01 6.732240000000000446e-01 7.780430000000000401e-01 4.742999999999999994e-01 2.408234000000000208e+00 -1.499060000000000059e+00 -1.572192000000000034e+00 3.878909999999999858e-01 -1.323550000000000004e-01 -8.470630000000000104e-01 -9.490760000000000307e-01 2.973009999999999819e-01 6.970600000000000407e-02 -3.219119999999999759e-01 1.028834000000000026e+00 -5.980339999999999545e-01 3.969010000000000038e-01 -2.504204000000000097e+00
9.836310000000000331e-01 2.608337000000000128e+00 -1.589858999999999911e+00 8.705739999999999590e-01 -4.117149999999999976e-01 8.834840000000000471e-01 2.175534999999999997e+00 -8.213799999999999990e-01 1.480993000000000004e+00 1.803323000000000009e+00 -1.064940999999999915e+00 1.903902999999999901e+00 1.145847000000000060e+00 -1.003247000000000000e+00 -7.979549999999999699e-01 -1.576192000000000037e+00 1.170570000000000110e+00 -1.068090999999999902e+00 -3.981339999999999879e-01 -3.354980000000000184e-01 1.155600000000000030e-02 3.624089999999999812e-01 -1.625369999999999870e-01 -1.057385999999999937e+00 1.143464000000000036e+00 -4.248336000000000112e+00 -8.006237999999999744e+00 -5.613420000000000076e-01 1.896465000000000067e+00 5.949649999999999661e-01 -1.654398000000000035e+00 3.985609999999999986e-01 -2.029787999999999926e+00 4.585179999999999811e-01 1.393453000000000053e+00 -4.493579999999999797e-01 1.424725999999999937e+00 -1.035492999999999997e+00 -3.049769999999999981e-01 6.662590000000000456e-01 -2.245810000000000028e-01 -4.039090000000000180e-01 2.779469999999999996e-01 -8.211990000000000123e-01 2.561392000000000113e+00 -1.660299999999999970e-02 7.898030000000000328e-01 4.567199999999999732e-02 -5.557149999999999590e-01 4.576379999999999892e-01 -1.755279999999999896e-01 -9.289100000000000135e-01 -1.121393000000000084e+00 -6.505500000000000171e-02 2.145621999999999918e+00 5.437600999999999907e+00 6.119328999999999574e+00 -4.867090000000000027e-01 -5.037589999999999568e-01 4.273129999999999984e-01 -1.857709999999999917e-01 2.087140000000000106e-01 1.163353000000000081e+00 -2.239879999999999927e-01 1.193069999999999964e-01 1.645590000000000108e-01 -5.384539999999999882e-01 1.256553000000000031e+00 1.207337000000000105e+00 -1.720930999999999989e+00 -6.097259999999999902e-01 -4.842739999999999823e-01 -4.025199999999999889e-01 6.477739999999999609e-01 -4.910400000000000181e-02 -6.393870000000000386e-01 -4.932239999999999958e-01 -2.003989999999999938e-01 -1.150460000000000038e+00 1.770559999999999912e-01 2.127239999999999964e-01 -4.540060000000000207e-01 -5.973089999999999788e-01 4.838109999999999911e-01 -1.505395999999999956e+00 -2.834420999999999857e+00 6.361400000000000388e-02 4.060449999999999893e-01 -5.224699999999999900e-01 -1.393812000000000051e+00 -7.657600000000000517e-02 -3.668420000000000014e-01 -1.369397999999999893e+00 -7.884090000000000265e-01 6.162410000000000387e-01 2.121125999999999845e+00
-5.564050000000000384e-01 1.357434000000000029e+00 -9.119199999999999529e-02 1.237700000000000085e-02 1.239865999999999913e+00 4.901170000000000249e-01 1.045449999999999990e-01 2.212399999999999922e-01 8.263800000000000312e-02 7.708049999999999624e-01 5.444000000000000228e-02 1.240825999999999985e+00 6.134540000000000548e-01 1.755359999999999976e-01 -2.572150000000000269e-01 7.836030000000000495e-01 -2.690879999999999939e-01 -1.481986000000000026e+00 -9.177899999999999947e-02 -1.034530000000000033e-01 4.844550000000000245e-01 -4.354500000000000037e-02 -6.912960000000000216e-01 -6.119600000000000040e-02 -4.728319999999999745e-01 -1.072229999999999989e-01 6.775579999999999936e-01 -3.524519999999999875e-01 -1.773720000000000019e-01 -7.557540000000000369e-01 -4.327099999999999697e-02 5.109270000000000200e-01 1.556480000000000086e-01 -1.758170000000000011e-01 4.501720000000000166e-01 -7.182039999999999536e-01 1.659758999999999984e+00 5.031020000000000492e-01 5.272210000000000507e-01 -1.217945999999999973e+00 -8.667099999999999804e-01 -9.161820000000000519e-01 -8.117159999999999931e-01 1.806089999999999918e-01 -3.149350000000000205e-01 -2.695489999999999831e-01 4.448400000000000271e-02 1.469499999999999973e-02 -3.747700000000000337e-02 -4.380499999999999949e-01 1.049315999999999915e+00 -4.291849999999999832e-01 1.575419999999999876e-01 4.286570000000000102e-01 4.059200000000000308e-02 5.521760000000000002e-01 1.563400000000000067e-01 -6.919609999999999594e+00 4.418555999999999706e+00 7.856750000000000123e-01 6.226270000000000415e-01 3.521440000000000126e-01 -1.817670000000000119e-01 -3.982809999999999961e-01 -4.565679999999999739e-01 -1.563829999999999942e-01 -2.151150000000000007e-01 6.058810000000000029e-01 -1.129655999999999993e+00 -8.325580000000000203e-01 -6.348190000000000222e-01 -1.900200000000000153e-02 -8.452359999999999873e-01 -8.171789999999999887e-01 7.360670000000000268e-01 7.669179999999999886e-01 -3.287720000000000087e-01 5.201000000000000068e-02 7.279447000000000223e+00 -4.935022000000000020e+00 2.570979999999999932e-01 -3.251699999999999730e-02 2.715790000000000148e-01 2.531129999999999769e-01 4.107000000000000407e-03 1.106729999999999992e+00 -1.365486999999999895e+00 -2.399590000000000056e-01 -6.882829999999999782e-01 1.766169999999999962e-01 9.713359999999999772e-01 -1.385969999999999980e-01 6.897769999999999735e-01 3.556810000000000249e-01 -1.549984999999999946e+00 -8.088680000000000314e-01
7.797999999999999376e-02 -5.008890000000000287e-01 1.091220000000000079e+00 -1.009622999999999937e+00 -1.718480999999999925e+00 -8.206360000000000321e-01 7.888399999999999856e-01 8.673180000000000334e-01 -8.190680000000000183e-01 8.832140000000000546e-01 2.269219000000000097e+00 6.656220000000000470e-01 -2.610379999999999923e-01 -1.545690999999999926e+00 9.768040000000000056e-01 2.149999999999999828e-02 7.834790000000000365e-01 2.194470000000000032e-01 -4.562599999999999989e-02 3.586825999999999848e+00 1.050778999999999908e+00 -1.344850000000000101e+00 -1.687734999999999985e+00 5.975033999999999956e+00 -7.052500000000000435e-02 -5.843399999999999705e-01 1.736102999999999952e+00 -2.844760000000000066e-01 5.940419999999999590e-01 -3.277299999999999658e-02 -4.418699999999999711e-02 8.721839999999999593e-01 -5.181879999999999820e-01 -2.181599999999999928e-01 -9.032710000000000461e-01 -7.323499999999999455e-02 2.101800000000000057e-01 -1.370695999999999914e+00 -5.184900000000000064e-01 -2.063619999999999899e-01 1.832200000000000148e-02 -4.954000000000000070e-02 4.752513999999999683e+00 2.915103000000000222e+00 -3.983051999999999815e+00 -7.741580000000000128e-01 1.376439999999999886e-01 7.382959999999999523e-01 4.815699999999999842e-02 7.022399999999999476e-02 -3.732409999999999894e-01 -4.247399999999999787e-02 -7.560799999999999466e-02 1.321107000000000031e+00 1.913160000000000138e-01 4.693479999999999874e-01 1.522477000000000080e+00 -4.282790000000000208e-01 2.582793999999999812e+00 -1.369753999999999916e+00 -1.030270999999999937e+00 -1.449187000000000003e+00 -1.194576000000000082e+00 -3.919385999999999814e+00 -3.457208000000000059e+00 -3.942909999999999915e+00 1.222629999999999967e-01 -1.088889999999999997e-01 -9.115480000000000249e-01 -1.743446999999999969e+00 -1.795698999999999934e+00 -5.917339999999999822e-01 1.022923999999999944e+00 -7.057060000000000555e-01 9.626240000000000352e-01 7.042730000000000379e-01 1.052002000000000104e+00 1.320919999999999872e-01 -9.419710000000000027e-01 -8.496199999999999586e-02 -2.470700000000000118e-01 5.850699999999999790e-01 -7.649299999999999988e-01 -8.191650000000000320e-01 4.649999999999999620e-03 2.712000000000000001e-03 1.156849999999999962e-01 2.440803999999999974e+00 -1.263082000000000038e+00 -2.561364000000000196e+00 -8.494110000000000271e-01 1.133580000000000004e-01 1.140586000000000100e+00 1.360557999999999934e+00 1.681796000000000069e+00 1.178466000000000014e+00
9.194419999999999815e-01 6.701329999999999787e-01 -2.299619999999999997e-01 1.784003999999999923e+00 8.447019999999999529e-01 5.332770000000000010e-01 1.157775999999999916e+00 -1.421308000000000016e+00 -7.169630000000000170e-01 -8.595319999999999627e-01 -7.442260000000000542e-01 4.635500000000000176e-01 -3.949482000000000159e+00 -4.810977000000000281e+00 -2.203120000000000189e+00 8.978279999999999594e-01 -2.018560000000000076e-01 -1.211575000000000069e+00 -7.655859999999999888e-01 -1.018936999999999982e+00 2.198209999999999997e+00 8.295609999999999928e-01 -1.371000000000000040e-03 2.739300000000000068e-01 -4.266289999999999805e-01 3.545179999999999998e-01 1.158259999999999984e-01 -1.066065000000000040e+00 2.340308999999999973e+00 -2.483199999999999991e-02 -2.788579999999999948e-01 -1.331474000000000046e+00 -3.155760000000000232e-01 -9.316360000000000197e-01 -8.173620000000000330e-01 1.599094000000000015e+00 1.560380000000000100e-01 -8.717080000000000384e-01 2.040349999999999941e-01 -1.729650000000000076e-01 5.837470000000000159e-01 -1.263190999999999953e+00 2.227672999999999792e+00 -7.574450000000000349e-01 -1.706180000000000030e+00 -1.145556999999999936e+00 8.431250000000000133e-01 -1.237049999999999955e-01 -8.254350000000000298e-01 8.915599999999999914e-02 4.522860000000000213e-01 -5.947999999999999815e-02 -5.787069999999999714e-01 -8.496000000000000080e-03 5.145039999999999614e-01 -1.299999999999999886e-04 -7.768909999999999982e-01 -3.122900000000000120e-01 -8.056539999999999813e-01 3.779609999999999914e-01 -4.102009999999999823e-01 -2.374042999999999903e+00 -1.229300999999999977e+00 -1.711989999999999901e-01 9.481669999999999821e-01 -2.982139999999999791e-01 -6.348179999999999934e-01 1.555180000000000007e+00 1.548467000000000038e+00 1.505017000000000049e+00 -1.702000000000000041e-02 -9.763990000000000169e-01 -6.266410000000000036e-01 9.264587999999999823e+00 -1.016950999999999938e+00 1.071925999999999934e+00 9.983199999999999852e-01 1.001781000000000033e+00 6.504879999999999551e-01 6.622930000000000206e-01 -1.394199999999999884e-01 -1.098853999999999997e+00 1.302259000000000055e+00 7.050279999999999880e-01 2.068639999999999923e-01 -1.246221000000000023e+00 4.799640000000000017e-01 -3.667929999999999802e-01 -6.768799999999999817e-02 -2.233110000000000095e-01 2.350656999999999996e+00 -3.998296999999999990e+00 2.962793000000000010e+00 -1.697569999999999912e-01 6.079290000000000527e-01 -4.521129999999999871e-01
-3.928320000000000145e-01 2.066580000000000084e+00 1.027522000000000046e+00 9.291900000000000159e-02 3.062130000000000130e-01 -4.892599999999999727e-01 -1.988109999999999877e-01 -6.324419999999999487e-01 1.191170000000000007e-01 6.108010000000000383e-01 -1.930030000000000079e-01 1.069129999999999914e+00 2.307261000000000006e+00 6.227574999999999861e+00 -3.060789999999999900e+00 9.056520000000000126e-01 -1.718671999999999978e+00 3.606062000000000101e+00 6.066820000000000546e-01 5.807080000000000020e-01 1.225200000000000074e-02 2.860119999999999885e-01 -5.550380000000000313e-01 -1.660649999999999904e-01 6.554119999999999946e-01 1.451770000000000005e-01 9.502960000000000296e-01 1.936519999999999908e-01 -2.208950000000000080e-01 -4.759200000000000097e-01 -1.764580000000000037e-01 -4.120349999999999846e-01 -4.831300000000000178e-02 -2.455594000000000054e+00 3.094914999999999861e+00 4.688970000000000082e-01 -1.056129000000000095e+00 -8.185900000000000398e-01 -4.406010000000000204e-01 -5.214990000000000459e-01 -4.683579999999999965e-01 2.251070000000000015e-01 5.724719999999999809e-01 -4.423480000000000190e-01 -8.481199999999999850e-01 -1.326309999999999989e-01 2.970619999999999927e-01 -7.633349999999999858e-01 -7.303119999999999612e-01 5.125450000000000284e-01 -2.772169999999999912e-01 4.772099999999999953e-02 1.442809999999999926e-01 -5.136279999999999735e-01 -5.639899999999999775e-02 7.200940000000000119e-01 7.099469999999999947e-01 -2.571590000000000265e-01 4.684229999999999783e-01 -2.692080000000000028e-01 -5.422400000000000136e-02 7.968600000000000683e-02 4.362809999999999744e-01 4.427619999999999889e-01 -2.428859000000000101e+00 -1.494339000000000084e+00 1.739320000000000033e-01 8.104899999999999605e-02 3.126999999999999919e-02 2.612639999999999851e+00 -2.812136999999999887e+00 4.371990000000000043e-01 1.792982000000000076e+00 -5.262050000000000338e-01 1.513160000000000061e+00 5.802100000000000035e-01 6.147199999999999886e-02 6.206819999999999560e-01 -1.252472999999999947e+00 2.816350000000000242e-01 -6.892700000000000216e-02 -2.114630000000000121e-01 -1.003420000000000006e-01 6.778690000000000548e-01 -1.881774000000000058e+00 -4.988103999999999871e+00 -1.117980999999999892e+00 -2.373994000000000160e+00 1.446202999999999905e+00 -1.638657999999999948e+00 -4.241340000000000110e-01 -8.952440000000000397e-01 -1.745510000000000117e-01 2.947750000000000092e-01 6.986539999999999973e-01 -5.787699999999999789e-02
-3.470280000000000031e-01 -6.343039999999999790e-01 1.747379000000000016e+00 -4.567500000000000032e-02 1.791540000000000077e-01 1.096720000000000056e-01 5.268402000000000029e+00 3.989710000000000201e-01 3.525599999999999845e-01 -3.358265999999999973e+00 8.088058000000000192e+00 4.192745999999999640e+00 -6.200830000000000508e-01 2.158247999999999944e+00 -2.063973999999999975e+00 6.446100000000000441e-02 -5.610899999999999915e-02 -3.534550000000000192e-01 2.082509999999999917e-01 -1.800187999999999899e+00 -3.976810000000000067e-01 7.251060000000000283e-01 8.006959999999999633e-01 7.469139999999999668e-01 1.010453000000000046e+00 -5.699680000000000302e-01 -2.113420000000000021e-01 -9.841109999999999580e-01 8.306499999999999995e-02 2.674639999999999795e-01 -2.228169999999999873e-01 2.034169999999999867e-01 -1.023889999999999939e-01 -4.209700000000000247e-02 9.882739999999999858e-01 -5.003739999999999855e-01 -8.484840000000000160e-01 8.246050000000000324e-01 2.950079999999999925e-01 1.478261999999999965e+00 -9.667879999999999807e-01 5.058399999999999702e-02 6.369999999999999794e-04 -7.374799999999999411e-02 8.444819999999999549e-01 -7.385150000000000325e-01 1.030299999999999966e-01 5.115480000000000027e-01 9.237630000000000008e-01 6.894270000000000120e-01 -5.502190000000000136e-01 3.637630000000000030e-01 -5.789210000000000189e-01 1.935050000000000103e-01 -4.458570000000000033e-01 -7.422800000000000231e-02 -1.386697000000000068e+00 4.318589999999999929e-01 -1.112741999999999898e+00 -1.203956000000000026e+00 -7.309320000000000261e-01 1.100351000000000079e+00 -5.569699999999999651e-01 -1.597642999999999924e+00 1.497590999999999894e+00 1.101342999999999961e+00 -4.255800999999999945e+00 -3.785778999999999783e+00 -3.214894000000000140e+00 1.551917999999999909e+00 -2.175945000000000018e+00 -3.921780000000000266e-01 1.563652999999999960e+00 2.200950000000000129e-01 -9.100999999999999368e-02 -5.762699999999999489e-01 -1.081016999999999895e+00 4.328670000000000018e-01 -1.072337000000000096e+00 3.638600000000000168e-02 -1.358875999999999973e+00 1.240928999999999949e+00 -4.082830000000000070e-01 6.170539999999999914e-01 -9.146440000000000126e-01 1.553869999999999973e-01 7.377100000000000324e-02 -2.361610000000000098e-01 -4.228120000000000211e-01 1.948445999999999900e+00 2.719329999999999803e-01 -3.023150000000000004e-01 -2.390589999999999937e-01 1.933332000000000050e+00 -3.483607000000000120e+00 -8.622710000000000097e-01
1.009741000000000000e+00 -2.348371999999999904e+00 -1.676914000000000016e+00 -6.711749999999999661e-01 -3.638000000000000175e-03 -1.894729000000000108e+00 -1.622949999999999893e+00 1.596383000000000107e+00 1.951864000000000043e+00 -1.872429999999999928e-01 1.080590000000000023e-01 -5.220299999999999940e-01 2.936892999999999976e+00 -5.274207999999999785e+00 -8.598425000000000651e+00 8.914490000000000469e-01 7.905000000000000568e-03 -1.330009999999999915e+00 -4.042939999999999867e-01 -3.279110000000000080e-01 -9.048119999999999497e-01 -1.311693999999999916e+00 2.043747000000000202e+00 -7.277379999999999960e-01 -3.145563000000000109e+00 4.333822999999999759e+00 5.295781999999999989e+00 2.685623000000000093e+00 -1.399639999999999995e+00 9.955990000000000117e-01 2.476720000000000033e-01 -4.588439999999999741e-01 2.181800000000000128e-01 1.431710999999999956e+00 -1.456900000000000035e-02 1.875479999999999925e-01 -4.593909999999999938e-01 2.624810000000000199e-01 -1.816589999999999872e-01 5.416399999999999687e-02 -5.627320000000000100e-01 3.286529999999999729e-01 -5.283729999999999816e-01 -4.593260000000000121e-01 2.141059999999999908e-01 -9.321359999999999646e-01 -6.257400000000000462e-02 -1.466153999999999957e+00 9.778710000000000457e-01 1.410592999999999986e+00 2.536653999999999964e+00 -8.105280000000000262e-01 -1.650663999999999909e+00 8.259069999999999467e-01 -2.513720000000000176e+00 9.921499999999999764e-02 8.473180000000000156e-01 -2.102787999999999879e+00 2.145120000000000082e-01 -4.505480000000000040e-01 -1.197125999999999912e+00 3.745470000000000188e-01 1.647766000000000064e+00 7.924039999999999973e-01 1.910679999999999934e+00 1.816599999999999882e-01 8.234420000000000073e-01 3.257349999999999968e-01 1.732525000000000093e+00 6.092290000000000205e-01 8.318999999999999728e-01 -7.990239999999999565e-01 -2.140430000000000110e-01 4.963099999999999734e-01 1.001860999999999891e+00 -1.048390000000000016e-01 5.176380000000000425e-01 -4.420680000000000165e-01 1.308766000000000096e+00 -9.060259999999999980e-01 8.936600000000000099e-02 -2.303139999999999910e-01 -5.990579999999999794e-01 7.450740000000000141e-01 6.721219999999999972e-01 1.005141000000000062e+00 8.119269999999999543e-01 5.574080000000000146e-01 1.877149999999999930e-01 -9.095799999999999719e-02 2.513904000000000138e+00 1.358271999999999924e+00 6.718920000000000448e-01 -1.076222000000000012e+00 -3.017097000000000140e+00 -1.198609999999999953e+00