1.214310000000000000e+00 3.506040000000000045e+00 6.021969999999999601e+00 1.071180000000000021e+00 2.512710000000000221e+00 8.713079999999999714e+00 5.243900000000000228e-01 4.133219999999999672e+00 1.085289999999999999e+01 3.969599999999999795e-01 2.238020000000000120e+00 4.029939999999999856e+00 1.279930000000000012e+00 3.217159999999999798e+00 1.763469999999999871e+01 1.682590000000000030e+00 4.308159999999999989e+00 3.541139999999999954e+00 2.205449999999999910e+00 4.435600000000000098e-01 8.535019999999999385e+00 1.869820000000000038e+00 2.045609999999999928e+00 1.150140000000000029e+01 1.993260000000000032e+00 1.318140000000000089e+00 1.671189999999999953e+00 3.150000000000000022e-01 8.280199999999999783e-01 1.822439999999999927e+01 2.316139999999999866e+00 1.238399999999999945e+00 6.283649999999999736e+00 3.720100000000000073e-01 3.785789999999999988e+00 1.345550000000000024e+00
2.327230000000000132e+00 4.213460000000000427e+00 8.370800000000000463e-01 5.220999999999999946e-02 1.635860000000000092e+00 6.476630000000000109e+00 2.651839999999999975e+00 2.298750000000000071e+00 1.038599999999999923e+01 1.356559999999999988e+00 4.603939999999999699e+00 1.051650000000000063e+01 2.416319999999999801e+00 2.688300000000000134e-01 8.558130000000000237e+00 7.295000000000000095e-02 4.478189999999999671e+00 4.770839999999999748e+00 1.503840000000000066e+00 3.962120000000000086e+00 6.572739999999999583e+00 2.321300000000000030e-01 1.384810000000000096e+00 2.793410000000000171e+00 1.596260000000000012e+00 3.645509999999999806e+00 2.610250000000000181e+00 1.141219999999999901e+00 2.510699999999999932e+00 4.566699999999999982e+00 1.023760000000000003e+00 2.614710000000000090e+00 8.456559999999999633e+00 1.386970000000000036e+00 1.992329999999999934e+00 6.571299999999999919e-01
1.565360000000000085e+00 2.121579999999999799e+00 1.125169999999999959e+01 1.373990000000000045e+00 2.598669999999999813e+00 8.986039999999999139e+00 3.117699999999999916e-01 2.321070000000000189e+00 4.106670000000000265e+00 2.473629999999999995e+00 1.110799999999999982e-01 4.425159999999999982e+00 1.842700000000000005e+00 1.611250000000000071e+00 2.386760000000000215e+00 2.486559999999999881e+00 1.322319999999999940e+00 6.813340000000000174e+00 2.266169999999999796e+00 4.772590000000000110e+00 8.751649999999999707e+00 1.829609999999999959e+00 2.636270000000000113e+00 3.758900000000000019e-01 9.178600000000000092e-01 3.902350000000000207e+00 2.325959999999999805e+00 6.279599999999999627e-01 3.551340000000000163e+00 6.804809999999999803e+00 4.665900000000000047e-01 3.976069999999999993e+00 1.094089999999999918e+01 3.510300000000000087e-01 5.376999999999999835e-02 1.682800000000000129e-01
9.402899999999999592e-01 2.249870000000000037e+00 8.799780000000000157e+00 4.502200000000000091e-01 2.320580000000000087e+00 1.106540000000000035e+01 2.068940000000000001e+00 1.320079999999999920e+00 5.027000000000000218e-02 4.395200000000000218e-01 1.042999999999999927e+00 6.143919999999999604e+00 8.135799999999999699e-01 3.541389999999999816e+00 1.249099999999999933e-01 5.361500000000000155e-01 2.426219999999999821e+00 1.820789999999999909e+00 1.732699999999999907e+00 3.271679999999999922e+00 6.622539999999999871e+00 1.405080000000000107e+00 1.729819999999999913e+00 3.907680000000000042e+00 3.729299999999999837e-01 -3.624000000000000138e-02 8.390700000000000713e+00 1.957489999999999952e+00 4.540409999999999613e+00 2.246830000000000105e+00 2.260099999999999887e-01 4.003059999999999619e+00 4.216980000000000395e+00 1.811469999999999914e+00 2.097600000000000020e-01 1.120480000000000054e+01
4.428099999999999814e-01 1.183799999999999991e-01 8.635600000000000165e+00 2.434460000000000068e+00 4.693060000000000009e+00 4.706750000000000433e+00 1.116549999999999931e+00 3.805880000000000152e+00 2.615800000000000125e+00 4.162299999999999889e-01 1.624349999999999961e+00 1.068389999999999951e+01 1.616200000000000081e+00 4.026099999999999568e+00 1.045250000000000057e+01 2.196559999999999846e+00 1.424549999999999983e+00 2.887290000000000134e+00 1.125019999999999909e+00 2.247679999999999900e+00 4.551540000000000141e+00 1.783689999999999998e+00 2.622520000000000184e+00 8.502900000000000347e+00 2.283859999999999779e+00 3.111099999999999977e-01 8.173200000000000465e-01 2.518730000000000135e+00 1.417950000000000044e+00 6.632270000000000110e+00 1.198720000000000008e+00 2.773149999999999782e+00 8.309900000000000064e-01 8.773199999999999887e-01 3.652050000000000018e+00 6.456360000000000099e+00
2.258199999999999985e+00 3.483800000000000008e+00 6.494650000000000034e+00 2.416069999999999940e+00 2.517529999999999824e+00 8.701689999999999259e+00 1.409059999999999979e+00 5.937799999999999745e-01 9.011810000000000542e+00 1.694939999999999891e+00 1.687179999999999902e+00 2.143339999999999801e+00 8.344700000000000450e-01 6.396199999999999664e-01 4.355990000000000251e+00 9.887500000000000178e-01 1.897080000000000100e+00 1.917660000000000053e+01 2.355020000000000113e+00 2.736110000000000042e+00 4.179090000000000416e+00 1.905149999999999899e+00 4.059709999999999930e+00 7.513000000000000234e-02 2.945300000000000140e-01 3.926200000000000134e+00 2.376440000000000108e+00 1.219240000000000101e+00 1.342589999999999950e+00 6.641849999999999810e+00 2.420549999999999979e+00 3.088000000000000189e-01 1.109939999999999927e+01 4.978299999999999947e-01 2.673970000000000180e+00 1.067830000000000013e+01
6.510299999999999976e-01 2.487299999999999844e+00 6.521429999999999616e+00 2.310729999999999951e+00 3.014769999999999950e+00 5.737799999999999567e-01 2.360129999999999839e+00 1.481279999999999930e+00 2.404339999999999922e+00 8.443699999999999539e-01 3.904139999999999944e+00 2.720139999999999780e+00 1.174420000000000019e+00 7.344100000000000072e-01 4.563889999999999780e+00 8.677599999999999758e-01 8.633199999999999763e-01 5.046100000000000030e-01 5.704599999999999671e-01 4.601670000000000371e+00 8.677960000000000562e+00 2.052599999999999980e-01 1.923100000000000032e+00 1.131279999999999930e+01 1.450110000000000010e+00 3.607209999999999805e+00 1.072080000000000055e+01 2.200410000000000199e+00 3.061519999999999797e+00 4.618360000000000021e+00 2.055070000000000174e+00 2.213119999999999976e+00 8.810480000000000089e+00 2.473250000000000171e+00 3.022299999999999986e-01 6.482050000000000090e+00
1.312780000000000058e+00 3.773000000000000242e-01 1.057990000000000030e+01 1.253940000000000055e+00 2.318700000000000205e+00 8.408369999999999678e+00 9.808999999999999941e-01 2.421899999999999942e+00 4.370009999999999728e+00 1.971629999999999994e+00 2.841699999999999782e-01 4.602500000000000036e+00 2.323500000000000121e+00 1.777670000000000083e+00 2.655590000000000117e+00 2.284870000000000179e+00 1.375310000000000032e+00 6.615560000000000329e+00 2.212000000000000077e-02 4.725850000000000328e+00 8.578839999999999577e+00 2.045659999999999812e+00 3.490369999999999973e+00 6.261299999999999644e-01 4.462099999999999955e-01 4.037239999999999718e+00 2.785379999999999967e+00 3.240199999999999747e-01 3.780050000000000132e+00 6.487840000000000273e+00 2.502260000000000151e+00 3.406039999999999957e+00 1.098090000000000011e+01 1.045330000000000092e+00 9.837599999999999678e-01 6.461799999999999766e-01
3.012299999999999978e-01 1.426790000000000003e+00 1.094439999999999991e+01 4.787699999999999734e-01 4.110500000000000265e-01 8.496940000000000381e+00 2.406379999999999963e+00 4.279999999999999777e-02 6.249640000000000306e+00 8.300199999999999800e-01 3.048480000000000079e+00 4.526909999999999989e+00 -2.832299999999999818e-01 3.182690000000000019e+00 2.092010000000000147e+01 8.641999999999999682e-01 2.096429999999999794e+00 6.736439999999999984e+00 2.227320000000000189e+00 1.953060000000000018e+00 2.680870000000000086e+00 1.557290000000000063e+00 4.276539999999999786e+00 1.065070000000000050e+01 1.846249999999999947e+00 2.899729999999999919e+00 8.670619999999999550e+00 7.807899999999999840e-01 8.846800000000000219e-01 4.385659999999999670e+00 6.665400000000000214e-01 4.091820000000000235e+00 2.144919999999999938e+00 1.791469999999999896e+00 6.543999999999999817e-02 4.203500000000000014e-01
1.800419999999999909e+00 1.001840000000000064e+00 1.149070000000000036e+01 1.318130000000000024e+00 1.036929999999999907e+00 9.301550000000000651e+00 7.118900000000000228e-01 4.183169999999999611e+00 3.684919999999999973e+00 2.715669999999999806e+00 3.958790000000000031e+00 2.065530000000000044e+01 2.155499999999999916e-01 2.991960000000000175e+00 8.713990000000000791e+00 2.171129999999999782e+00 3.173750000000000071e+00 5.895859999999999879e+00 2.053539999999999921e+00 1.907629999999999937e+00 3.698939999999999895e+00 1.936399999999999899e+00 5.470699999999999452e-01 1.427740000000000009e+00 6.346399999999999819e-01 3.280260000000000176e+00 1.080400000000000027e+01 1.247689999999999966e+00 1.909359999999999946e+00 2.065190000000000126e+01 7.940899999999999626e-01 2.806360000000000188e+00 1.795379999999999976e+00 1.176279999999999992e+00 9.695899999999999519e-01 6.031550000000000189e+00
1.201510000000000078e+00 1.280189999999999939e+00 2.046000000000000085e+01 1.796040000000000081e+00 3.044649999999999856e+00 6.117180000000000284e+00 1.414999999999999938e-02 3.353229999999999933e+00 3.946460000000000079e+00 7.765600000000000280e-01 1.212620000000000031e+00 1.062950000000000017e+01 6.164699999999999624e-01 4.906699999999999950e-01 2.000480000000000036e+00 1.267970000000000041e+00 1.237000000000000099e+00 4.062339999999999840e+00 3.491000000000000214e-01 8.210800000000000320e-01 6.286030000000000229e+00 1.463319999999999954e+00 2.569679999999999964e+00 1.970099999999999962e+00 3.560300000000000131e-01 2.384240000000000137e+00 8.365940000000000154e+00 2.132179999999999964e+00 3.395370000000000221e+00 1.075360000000000049e+01 2.264339999999999797e+00 3.546019999999999950e+00 2.020090000000000074e+01 1.748780000000000001e+00 1.811699999999999977e-01 8.417960000000000775e+00
5.348600000000000021e-01 3.910270000000000135e+00 7.274079999999999657e+00 4.956400000000000250e-01 1.530189999999999939e+00 4.073780000000000179e+00 1.755430000000000046e+00 3.792899999999999938e+00 8.501000000000000223e-02 4.450700000000000212e-01 3.901199999999999779e+00 1.129100000000000037e+01 1.997030000000000083e+00 3.751360000000000028e+00 9.242470000000000852e+00 1.984750000000000014e+00 3.691809999999999814e+00 4.874609999999999665e+00 1.945800000000000030e-01 2.556290000000000173e+00 2.150850000000000151e+01 1.643590000000000106e+00 1.636149999999999993e+00 6.216420000000000279e+00 2.089970000000000105e+00 1.383890000000000065e+00 1.616829999999999989e+00 1.107469999999999954e+00 1.736019999999999897e+00 8.864919999999999689e+00 7.645800000000000374e-01 3.533090000000000064e+00 2.211580000000000101e+00 1.899950000000000028e+00 1.821430000000000105e+00 1.082779999999999987e+01
3.626199999999999979e-01 5.332299999999999818e-01 8.710079999999999600e+00 3.133199999999999874e-01 3.428739999999999899e+00 1.058370000000000033e+01 1.820770000000000000e+00 2.519760000000000222e+00 8.640760000000000218e+00 1.914740000000000109e+00 2.330659999999999954e+00 4.390430000000000277e+00 2.839499999999999802e-01 2.892069999999999919e+00 2.499490000000000212e+00 1.823159999999999892e+00 4.220010000000000261e+00 6.736959999999999837e+00 3.513100000000000112e-01 1.884099999999999941e-01 4.308849999999999625e+00 1.620249999999999968e+00 1.206630000000000091e+00 1.080550000000000033e+01 6.033300000000000329e-01 1.794589999999999907e+00 6.613380000000000258e+00 1.633820000000000050e+00 5.090599999999999570e-01 2.424430000000000085e+00 4.107100000000000195e-01 4.568789999999999907e+00 8.028600000000000181e-01 1.679459999999999953e+00 1.984490000000000087e+00 6.740899999999999670e-01
1.618670000000000053e+00 1.006070000000000020e+00 1.077820000000000000e+01 7.484199999999999742e-01 2.517399999999999860e+00 8.684290000000000731e+00 1.355390000000000095e+00 2.606009999999999938e+00 4.504990000000000272e+00 2.013189999999999813e+00 1.486099999999999921e-01 4.441679999999999851e+00 2.174009999999999998e+00 1.934029999999999916e+00 2.513469999999999871e+00 2.359989999999999810e+00 1.416749999999999954e+00 6.743170000000000108e+00 2.572560000000000180e+00 4.808329999999999771e+00 8.879659999999999442e+00 1.786240000000000050e+00 3.102790000000000159e+00 5.397399999999999975e-01 5.982800000000000340e-01 4.004780000000000229e+00 2.489879999999999871e+00 1.004400000000000015e-01 3.820139999999999869e+00 6.624810000000000088e+00 4.204999999999999849e-01 2.808510000000000062e+00 1.089310000000000045e+01 7.655300000000000438e-01 8.049399999999999888e-01 2.441800000000000082e-01
1.770880000000000010e+00 9.073999999999999844e-01 1.113829999999999920e+01 1.254229999999999956e+00 2.028700000000000170e+00 8.492290000000000560e+00 9.361899999999999666e-01 2.766830000000000123e+00 4.862680000000000113e+00 2.190490000000000048e+00 1.810499999999999887e-01 4.476069999999999993e+00 2.286840000000000206e+00 1.387580000000000036e+00 2.252899999999999903e+00 2.238830000000000098e+00 1.346179999999999932e+00 6.460359999999999658e+00 2.517009999999999970e+00 4.820969999999999978e+00 8.945619999999999905e+00 1.700769999999999893e+00 3.068010000000000126e+00 1.486399999999999944e-01 9.191799999999999971e-01 3.975830000000000197e+00 2.522889999999999855e+00 9.328999999999999793e-02 3.959010000000000140e+00 6.713149999999999729e+00 2.593199999999999950e-01 3.905899999999999928e+00 1.104180000000000028e+01 3.462200000000000277e-01 6.308899999999999508e-01 2.825699999999999878e-01
1.391620000000000079e+00 2.438660000000000050e+00 3.810270000000000046e+00 9.786799999999999944e-01 1.117159999999999931e+00 2.197619999999999862e+01 8.101500000000000368e-01 3.634920000000000151e+00 1.225019999999999953e+01 1.732599999999999973e-01 1.858950000000000102e+00 5.843370000000000175e+00 2.332700000000000051e-01 4.430360000000000298e+00 9.710760000000000502e+00 2.272899999999999920e-01 4.561219999999999608e+00 4.470069999999999766e+00 1.174909999999999899e+00 2.064569999999999794e+00 8.195009999999999906e+00 2.386779999999999902e+00 2.303780000000000161e+00 1.087250000000000050e+01 5.453999999999999820e-02 2.563359999999999861e+00 1.393420000000000103e+00 1.885839999999999961e+00 2.800500000000000211e-01 2.224439999999999973e+00 1.968460000000000099e+00 4.415390000000000370e+00 7.182360000000000078e+00 1.918100000000000083e-01 3.334299999999999820e+00 2.100159999999999982e+01
1.211670000000000025e+00 1.838039999999999896e+00 1.821869999999999834e+01 2.320510000000000073e+00 3.500640000000000196e+00 8.447960000000000136e+00 2.241130000000000067e+00 2.145370000000000221e+00 1.093490000000000073e+01 1.147429999999999950e+00 1.295660000000000034e+00 8.536060000000000869e+00 6.855599999999999472e-01 2.450410000000000199e+00 6.403229999999999755e+00 1.065600000000000103e+00 2.776079999999999881e+00 1.731689999999999952e+00 4.882699999999999818e-01 5.959799999999999542e-01 1.740019999999999900e+00 1.004990000000000050e+00 7.206999999999999518e-02 1.065659999999999918e+01 2.407179999999999875e+00 -3.120399999999999840e-01 1.798900000000000077e+01 2.078959999999999919e+00 2.164500000000000035e-01 6.370350000000000179e+00 5.637799999999999478e-01 3.921990000000000087e+00 4.364740000000000286e+00 1.519209999999999949e+00 1.703889999999999905e+00 4.151550000000000296e+00
1.119520000000000071e+00 3.336629999999999985e+00 6.409309999999999619e+00 2.511399999999999744e-01 2.211269999999999847e+00 8.589489999999999625e+00 1.091890000000000027e+00 3.876619999999999955e+00 1.053270000000000017e+01 7.045700000000000296e-01 2.385699999999999932e+00 4.059429999999999872e+00 1.251360000000000028e+00 3.426010000000000222e+00 1.775199999999999889e+01 1.789239999999999942e+00 8.076999999999999458e-02 4.321119999999999628e+00 1.789760000000000018e+00 1.402799999999999880e-01 8.466920000000000002e+00 -9.246000000000000052e-02 1.711049999999999960e+00 1.062500000000000000e+01 1.640689999999999982e+00 1.838789999999999925e+00 1.725719999999999921e+00 -8.876000000000000556e-02 1.118030000000000079e+00 1.727899999999999991e+01 2.725000000000000200e-01 1.076750000000000096e+00 6.457270000000000287e+00 7.310400000000000231e-01 3.980659999999999865e+00 2.136950000000000127e+00
9.415200000000000236e-01 3.814229999999999787e+00 8.537869999999999848e+00 1.778929999999999900e+00 5.768999999999999684e-01 1.896560000000000024e+00 2.491750000000000131e+00 1.779330000000000078e+00 8.656090000000000728e+00 1.895950000000000024e+00 3.386579999999999924e+00 6.278260000000000396e+00 1.770399999999999974e+00 1.513090000000000046e+00 1.675740000000000052e+01 7.771500000000000075e-01 4.093040000000000234e+00 4.243839999999999613e+00 4.013100000000000001e-01 3.617020000000000124e+00 2.260600000000000109e-01 1.501300000000000079e+00 2.500579999999999803e+00 1.194439999999999991e+01 2.053920000000000190e+00 1.934609999999999941e+00 4.167349999999999888e+00 7.521999999999999797e-01 8.908800000000000052e-01 6.310080000000000133e+00 4.245700000000000029e-01 2.772619999999999862e+00 2.119209999999999816e+00 1.694000000000000020e-02 6.246300000000000185e-01 1.078289999999999971e+01
2.201719999999999899e+00 3.518050000000000122e+00 9.290689999999999671e+00 8.431300000000000461e-01 1.316659999999999942e+00 9.047180000000000888e+00 1.254539999999999988e+00 1.230969999999999898e+00 2.449030000000000040e+00 2.557900000000000174e-01 3.348300000000000165e-01 1.173799999999999982e-01 9.537999999999999812e-01 4.304210000000000313e+00 6.763910000000000089e+00 2.178409999999999958e+00 1.904530000000000056e+00 6.549909999999999677e+00 2.477370000000000072e+00 3.335039999999999782e+00 2.393320000000000114e+00 9.804699999999999527e-01 7.570299999999999807e-01 1.111129999999999995e+01 2.005879999999999885e+00 2.856609999999999872e+00 1.160159999999999947e+01 1.907569999999999988e+00 4.672740000000000116e+00 4.317109999999999559e+00 1.163589999999999902e+00 2.541269999999999918e+00 3.146100000000000008e-01 6.111400000000000166e-01 2.490229999999999944e+00 4.430209999999999759e+00
2.225929999999999964e+00 4.272700000000000387e+00 1.063240000000000052e+01 2.302960000000000118e+00 7.758199999999999541e-01 8.602999999999999536e-02 4.085099999999999842e-01 1.857939999999999925e+00 8.505100000000000549e+00 1.082869999999999999e+00 6.898600000000000287e-01 4.289349999999999774e+00 5.975500000000000256e-01 4.496360000000000134e+00 1.918520000000000003e+00 7.326000000000000290e-01 3.518440000000000012e+00 6.235710000000000086e+00 1.380649999999999933e+00 4.272420000000000329e+00 8.494080000000000297e+00 2.240470000000000184e+00 1.343820000000000014e+00 6.269319999999999560e+00 1.193159999999999998e+00 2.187889999999999890e+00 1.718830000000000080e+00 2.292609999999999815e+00 2.610390000000000210e+00 3.770840000000000192e+00 6.912000000000000366e-01 1.974920000000000009e+00 1.065649999999999942e+01 1.173559999999999937e+00 3.073589999999999822e+00 1.814219999999999899e+01
1.724599999999999911e+00 1.047139999999999960e+00 1.120809999999999995e+01 1.323269999999999946e+00 2.037189999999999834e+00 8.605779999999999319e+00 7.489900000000000446e-01 2.859700000000000131e+00 4.785140000000000171e+00 2.276120000000000143e+00 1.401300000000000046e-01 4.463890000000000136e+00 2.288619999999999877e+00 1.286689999999999889e+00 2.212509999999999977e+00 2.310169999999999835e+00 1.304070000000000062e+00 6.485940000000000261e+00 2.514130000000000198e+00 4.781850000000000378e+00 8.924899999999999167e+00 1.700539999999999941e+00 3.069939999999999891e+00 1.590399999999999869e-01 9.500199999999999756e-01 3.975249999999999950e+00 2.454219999999999846e+00 1.321400000000000075e-01 3.900500000000000078e+00 6.675609999999999822e+00 2.648199999999999998e-01 4.028109999999999857e+00 1.101430000000000042e+01 2.797999999999999932e-01 5.477899999999999991e-01 3.477700000000000236e-01
2.711739999999999817e+00 4.076810000000000045e+00 2.450750000000000206e+00 7.885699999999999932e-01 1.801899999999999891e-01 4.684549999999999770e+00 2.203539999999999832e+00 2.597449999999999815e+00 4.426960000000000228e+00 2.282659999999999911e+00 1.593979999999999952e+00 1.087219999999999942e+01 9.846500000000000252e-01 4.167130000000000223e+00 8.572219999999999729e+00 2.581310000000000215e+00 2.061760000000000037e+00 8.840230000000000032e+00 9.190199999999999481e-01 2.883570000000000189e+00 3.299000000000000266e-01 9.031599999999999628e-01 2.762799999999999923e+00 6.427590000000000359e+00 2.038400000000000212e+00 6.616999999999999549e-01 6.736320000000000086e+00 1.807350000000000012e+00 3.694000000000000061e-01 3.148900000000000032e-01 2.926270000000000149e+00 3.930699999999999861e+00 1.074450000000000038e+01 9.534000000000000252e-01 1.668870000000000076e+00 2.417819999999999858e+00
2.161160000000000192e+00 4.264920000000000044e+00 1.067590000000000039e+01 2.457240000000000091e+00 8.102899999999999547e-01 1.801099999999999923e-01 2.827899999999999858e-01 1.907469999999999999e+00 8.513669999999999405e+00 1.009009999999999962e+00 6.395199999999999774e-01 4.394009999999999749e+00 7.522699999999999942e-01 4.425010000000000332e+00 1.942180000000000017e+00 7.518599999999999728e-01 3.603969999999999896e+00 6.257659999999999556e+00 1.286520000000000108e+00 4.270690000000000097e+00 8.498229999999999507e+00 2.317619999999999791e+00 1.289660000000000029e+00 6.163090000000000401e+00 1.155370000000000008e+00 2.112239999999999895e+00 1.675019999999999953e+00 2.321229999999999905e+00 2.652210000000000178e+00 3.709189999999999987e+00 6.479599999999999804e-01 1.893440000000000012e+00 1.054400000000000048e+01 1.179009999999999891e+00 3.204730000000000079e+00 1.816580000000000084e+01
