-3.995714056999999997e+01
-3.993372423000000282e+01
-3.869970288999999752e+01
-4.026676708000000104e+01
-4.068624126000000274e+01
-3.996056537999999847e+01
-4.009071732999999682e+01
-3.962234927000000084e+01
-3.909387251999999791e+01
-4.041406375999999767e+01
-4.131095212999999688e+01
-4.021366893999999803e+01
-4.044450866999999761e+01
-3.939050284000000346e+01
-3.899366166000000078e+01
-3.960468351000000098e+01
-4.107133148999999861e+01
-4.055707621999999901e+01
-4.016382086000000129e+01
-4.040445568999999892e+01
-4.031372337999999900e+01
-3.869080325000000187e+01
-4.064046553000000017e+01
-3.969294074999999822e+01
