-2.190620000000000067e-01 -6.238629999999999454e-01 6.317169999999999730e-01 -1.154369999999999979e-01 8.861550000000000260e-01 -2.263709999999999889e-01 -1.244038999999999895e+00 -2.845249999999999724e-01 -1.328877000000000086e+00 3.989469999999999961e-01 -1.060000000000000016e-04 -5.082980000000000276e-01 -3.607489999999999863e-01 3.401540000000000119e-01 5.512500000000000039e-02 -2.551889999999999992e-01 3.808429999999999871e-01 2.520000000000000018e-02 -1.088309999999999972e-01 -8.137950000000000461e-01 -1.846810000000000118e-01 2.674810000000000243e-01 -6.466809999999999503e-01 -1.172119999999999967e-01 9.176079999999999792e-01 -6.707199999999999829e-01 1.142128999999999950e+00 -5.260240000000000471e-01 1.887550000000000061e-01 8.830029999999999824e-01 1.051200000000000051e-02 3.086499999999999799e-01 -1.626579999999999970e-01 4.792529999999999846e-01 5.650129999999999875e-01 2.480500000000000066e-02 1.225263999999999909e+00 9.743999999999999884e-02 9.953269999999999618e-01 -2.751628999999999881e+00 7.715830000000000188e-01 1.988639999999999963e+00 -1.430899999999999950e-01 -8.612530000000000463e-01 -6.202349999999999808e-01 3.127599999999999825e-01 -4.421080000000000010e-01 -1.653890000000000082e-01 -5.919210000000000305e-01 1.349970000000000059e-01 -5.591730000000000311e-01 -5.752880000000000216e-01 -9.190299999999999858e-02 5.800380000000000535e-01 -8.870000000000000107e-02 3.850600000000000134e-01 6.412550000000000194e-01 4.157710000000000017e-01 5.102090000000000236e-01 -9.947799999999999698e-02 -6.034559999999999924e-01 -4.425500000000000267e-02 -5.831600000000000117e-01 1.675589999999999913e+00 -2.422580000000000011e-01 2.479590000000000127e-01 -6.071729999999999627e-01 -4.548429999999999973e-01 -8.901000000000000578e-02 8.928800000000000625e-02 3.339529999999999998e-01 3.845599999999999713e-02 3.743679999999999786e-01 -1.988830000000000042e-01 -2.047900000000000068e-02 -9.790159999999999973e-01 -7.730800000000000172e-02 4.515509999999999802e-01 -2.095360000000000000e-01 4.742080000000000184e-01 3.269509999999999916e-01 2.292039999999999911e-01 -1.638799999999999979e-01 -3.671820000000000084e-01 2.335863999999999940e+00 6.040470000000000006e-01 -3.224527000000000143e+00 2.220340000000000091e-01 -3.202619999999999911e-01 -8.703870000000000218e-01 4.671830000000000149e-01 3.507080000000000197e-01 6.599930000000000518e-01 -4.198699999999999655e-02 -3.951310000000000100e-01 4.349689999999999945e-01
