4.688629999999999853e+00 4.198500000000000121e+00 3.011499999999999844e+00 4.742609999999999992e+00 2.684699999999999864e-01 5.401089999999999947e+00 4.193529999999999980e+00 3.049279999999999990e+00 9.263970000000000482e+00 1.387340000000000018e+00 1.764629999999999921e+00 4.888000000000000123e-01 1.799770000000000092e+00 2.643520000000000092e+00 7.901040000000000063e+00 2.779170000000000140e+00 3.729399999999999937e-01 8.805419999999999803e+00 2.378490000000000215e+00 2.440599999999999992e-01 6.497910000000000075e+00 1.120000000000000023e-01 4.277790000000000425e+00 2.188599999999999990e-01 1.629760000000000097e+00 1.817870000000000097e+00 2.815259999999999874e+00 2.517689999999999984e+00 4.040580000000000283e+00 1.591210000000000013e+00 2.301870000000000083e+00 4.310950000000000060e+00 4.161030000000000229e+00 3.876910000000000078e+00 2.530530000000000168e+00 6.571030000000000371e+00 1.460760000000000058e+00 2.303399999999999892e+00 5.276629999999999932e+00 3.891989999999999839e+00 2.023169999999999913e+00 1.531679999999999930e+00 3.636410000000000142e+00 2.238970000000000127e+00 4.037790000000000212e+00 2.909499999999999864e-01 8.296299999999999786e-01 7.948260000000000325e+00
4.784379999999999633e+00 4.522739999999999760e+00 2.746700000000000141e+00 1.781470000000000109e+00 2.376599999999999824e+00 8.276880000000000237e+00 2.587499999999999911e+00 1.195200000000000012e-01 9.665699999999999292e+00 1.642599999999999894e-01 7.710000000000000187e-02 5.519300000000000317e+00 1.670039999999999969e+00 2.307679999999999954e+00 2.762039999999999829e+00 2.742200000000000193e-01 4.588739999999999597e+00 8.297340000000000160e+00 2.549160000000000093e+00 4.569720000000000226e+00 6.911100000000000243e+00 4.158360000000000056e+00 2.364009999999999945e+00 9.659470000000000667e+00 2.499289999999999790e+00 4.543239999999999945e+00 4.165429999999999744e+00 4.015609999999999680e+00 2.313140000000000196e+00 4.131759999999999877e+00 1.564810000000000034e+00 2.242319999999999869e+00 4.538999999999999979e-02 1.999000000000000082e-02 2.855999999999999858e-02 3.420999999999999736e-02 3.971210000000000129e+00 2.259049999999999780e+00 1.379559999999999897e+00 4.122980000000000089e+00 2.335890000000000022e+00 6.915090000000000181e+00 2.374280000000000168e+00 2.904999999999999943e-02 1.384840000000000071e+00 1.730290000000000106e+00 2.301200000000000134e+00 5.552469999999999573e+00
2.350750000000000117e+00 4.304020000000000401e+00 3.886460000000000026e+00 3.464640000000000164e+00 2.138490000000000002e+00 4.179280000000000328e+00 3.657630000000000159e+00 2.342499999999999805e+00 1.622049999999999992e+00 4.607039999999999580e+00 4.277960000000000207e+00 3.030959999999999877e+00 2.098700000000000010e-01 4.417469999999999786e+00 7.876960000000000406e+00 1.671740000000000004e+00 2.324879999999999836e+00 7.942879999999999718e+00 1.265879999999999894e+00 2.089030000000000165e+00 2.940819999999999990e+00 1.550890000000000102e+00 2.191349999999999909e+00 5.380000000000000060e-02 3.824339999999999851e+00 2.498079999999999856e+00 6.569250000000000256e+00 2.329199999999999882e-01 1.048100000000000004e-01 8.350899999999999990e-01 1.320619999999999905e+00 2.367150000000000087e+00 5.486430000000000362e+00 2.203780000000000072e+00 1.999499999999999889e-01 6.522359999999999935e+00 4.597229999999999706e+00 4.426249999999999574e+00 5.323579999999999757e+00 3.957479999999999887e+00 2.194090000000000096e+00 8.851839999999999264e+00 2.626599999999999824e+00 1.333799999999999986e-01 1.166090000000000071e+00 2.649540000000000006e+00 4.508589999999999876e+00 8.945930000000000604e+00
1.558329999999999993e+00 2.261909999999999865e+00 5.546700000000000408e+00 3.981360000000000010e+00 2.253890000000000171e+00 4.159550000000000303e+00 1.431559999999999944e+00 2.311970000000000081e+00 1.518140000000000001e+01 2.349559999999999871e+00 2.617999999999999841e-02 4.162539999999999907e+00 2.385879999999999779e+00 9.950000000000000511e-03 1.386230000000000073e+00 4.794769999999999754e+00 4.492639999999999745e+00 5.544430000000000192e+00 1.524639999999999995e+00 2.269530000000000047e+00 8.313840000000000785e+00 7.799999999999999859e-04 2.799999999999999755e-04 2.100000000000000087e-04 1.593069999999999986e+00 2.242680000000000007e+00 2.767780000000000129e+00 2.273670000000000080e+00 4.614000000000000046e-02 9.704510000000000858e+00 3.905819999999999848e+00 2.279910000000000103e+00 9.705299999999999372e+00 4.692910000000000359e+00 4.615999999999999964e-02 8.318720000000000780e+00 2.373920000000000030e+00 4.501629999999999576e+00 6.931949999999999612e+00 4.014920000000000044e+00 2.242440000000000211e+00 1.383040000000000047e+00 3.946229999999999905e+00 2.270309999999999828e+00 6.934029999999999916e+00 4.826749999999999652e+00 4.476679999999999993e+00 2.772590000000000110e+00
2.336609999999999854e+00 4.128350000000000186e+00 1.440779999999999950e+00 3.758129999999999971e+00 2.696349999999999802e+00 9.051420000000000243e+00 1.442960000000000020e+00 2.005529999999999813e+00 2.043699999999999961e-01 2.700940000000000119e+00 4.142199999999999771e-01 8.939840000000000231e+00 2.581600000000000006e-01 4.255460000000000242e+00 5.476200000000000401e+00 2.595800000000000107e+00 4.283500000000000085e+00 3.988910000000000178e+00 2.632429999999999826e+00 7.052999999999999547e-02 6.571979999999999933e+00 4.017079999999999984e+00 1.999870000000000037e+00 4.199099999999999611e+00 3.819290000000000074e+00 2.029170000000000140e+00 1.582500000000000018e+00 1.793230000000000102e+00 1.731680000000000108e+00 2.873590000000000089e+00 3.412100000000000133e-01 4.004660000000000331e+00 2.938060000000000116e+00 3.940549999999999997e+00 2.404430000000000067e+00 6.642879999999999896e+00 4.523080000000000211e+00 4.416850000000000165e+00 6.348700000000000454e-01 1.494080000000000075e+00 2.058030000000000026e+00 5.554840000000000444e+00 1.388749999999999929e+00 2.726370000000000182e+00 8.019869999999999166e+00 4.054300000000000126e-01 2.955999999999999739e-01 8.019709999999999894e+00
2.207399999999999918e-01 3.468480000000000008e+00 1.349400000000000044e-01 2.741070000000000118e+00 -1.523000000000000048e-02 3.901569999999999983e+00 1.535130000000000106e+00 2.036810000000000009e+00 3.265050000000000008e+00 3.587479999999999780e+00 3.054710000000000036e+00 9.303100000000000591e+00 3.659330000000000194e+00 2.104610000000000092e+00 4.390349999999999753e+00 1.770599999999999952e-01 1.013099999999999973e-01 4.943660000000000387e+00 3.497259999999999813e+00 1.422109999999999985e+00 1.793819999999999970e+00 1.234750000000000014e+00 2.249639999999999862e+00 5.533109999999999751e+00 1.233470000000000066e+00 1.359299999999999953e+00 1.033770000000000078e+00 1.980000000000000093e-01 3.991690000000000182e+00 2.549090000000000078e+00 2.368739999999999846e+00 3.763659999999999783e+00 1.441959999999999908e+00 2.243949999999999889e+00 1.296799999999999897e-01 6.574379999999999669e+00 2.364590000000000192e+00 8.599700000000000122e-01 8.841060000000000585e+00 1.260950000000000015e+00 2.642110000000000181e+00 7.989679999999999893e+00 3.873489999999999878e+00 2.704899999999999860e+00 6.908689999999999998e+00 1.450000000000000074e-02 4.446499999999999897e-01 7.538960000000000328e+00
1.628009999999999957e+00 2.247599999999999820e+00 1.713000000000000078e-01 4.099490000000000300e+00 2.150090000000000057e+00 1.372970000000000024e+00 2.373749999999999805e+00 4.402910000000000323e+00 1.381269999999999998e+00 2.542240000000000055e+00 4.327679999999999971e+00 4.117740000000000400e+00 4.074130000000000251e+00 2.136340000000000128e+00 4.140130000000000088e+00 4.169469999999999565e+00 2.047670000000000101e+00 6.909279999999999866e+00 4.865649999999999586e+00 4.363949999999999996e+00 2.767310000000000159e+00 1.636009999999999964e+00 2.167679999999999829e+00 2.726799999999999891e+00 5.000280000000000058e+00 4.186899999999999622e+00 8.231569999999999609e+00 1.684339999999999948e+00 2.101850000000000218e+00 5.544360000000000177e+00 4.781819999999999737e+00 4.441959999999999908e+00 9.120000000000000329e-02 4.929820000000000313e+00 4.261560000000000237e+00 5.549909999999999677e+00 4.207790000000000141e+00 1.963829999999999965e+00 9.581749999999999545e+00 2.593059999999999921e+00 -1.892099999999999893e-01 6.924940000000000317e+00 1.844729999999999981e+00 1.956599999999999895e+00 8.263980000000000103e+00 2.657649999999999846e+00 4.172419999999999796e+00 9.583330000000000126e+00
5.335999999999999771e-02 4.650179999999999758e+00 5.380770000000000053e+00 4.065839999999999677e+00 2.394760000000000222e+00 4.076920000000000321e+00 2.285590000000000011e+00 4.674249999999999794e+00 6.877620000000000289e+00 4.066130000000000244e+00 2.612779999999999880e+00 9.445999999999999730e+00 1.651219999999999910e+00 2.392619999999999969e+00 5.574600000000000222e+00 1.511600000000000055e+00 2.291420000000000012e+00 2.069999999999999896e-01 2.356970000000000010e+00 4.604479999999999684e+00 4.083540000000000170e+00 4.775439999999999685e+00 4.471820000000000128e+00 2.046999999999999861e-02 3.529000000000000192e-02 4.598880000000000301e+00 2.705229999999999801e+00 1.695659999999999945e+00 2.550380000000000091e+00 8.327719999999999345e+00 1.623769999999999936e+00 2.293639999999999901e+00 2.823869999999999880e+00 3.919610000000000039e+00 2.552569999999999784e+00 6.924280000000000435e+00 3.972220000000000084e+00 2.337060000000000137e+00 1.459750000000000103e+00 2.511429999999999829e+00 4.478600000000000136e+00 1.269849999999999923e+00 4.764509999999999579e+00 2.048999999999999988e-01 8.230880000000000862e+00 2.337610000000000188e+00 2.603699999999999903e-01 9.558690000000000353e+00
2.710920000000000218e+00 3.612000000000000210e-01 1.678779999999999939e+00 4.051840000000000330e+00 2.165620000000000100e+00 9.129709999999999326e+00 1.713249999999999940e+00 2.488070000000000004e+00 1.362700000000000022e-01 2.607219999999999871e+00 4.333359999999999879e+00 9.049179999999999779e+00 4.669469999999999565e+00 4.296759999999999913e+00 5.374390000000000001e+00 2.451049999999999951e+00 4.236670000000000158e+00 4.206949999999999967e+00 2.087060000000000137e+00 4.028529999999999944e+00 6.519510000000000360e+00 3.842569999999999819e+00 2.163839999999999986e+00 3.933030000000000026e+00 3.972809999999999953e+00 2.570269999999999833e+00 1.588659999999999961e+00 1.323159999999999892e+00 2.476090000000000124e+00 2.712460000000000093e+00 1.637899999999999912e-01 7.329999999999999710e-03 3.144390000000000018e+00 3.918050000000000033e+00 2.164000000000000146e+00 6.597870000000000346e+00 2.656899999999999817e-01 2.495100000000000096e-01 5.467600000000000238e-01 1.776710000000000012e+00 1.819450000000000012e+00 5.342999999999999972e+00 1.594249999999999945e+00 1.918860000000000010e+00 8.053520000000000678e+00 2.999100000000000099e-01 4.241030000000000300e+00 8.124430000000000263e+00
2.574720000000000120e+00 4.308209999999999873e+00 9.651529999999999276e+00 1.618719999999999937e+00 2.308190000000000186e+00 3.853999999999999787e-02 4.065599999999999881e+00 2.269569999999999865e+00 1.384079999999999977e+00 4.064479999999999649e+00 2.205290000000000195e+00 4.180600000000000094e+00 2.425889999999999880e+00 1.762999999999999984e-02 1.353620000000000045e+00 4.819969999999999644e+00 4.411699999999999733e+00 2.753260000000000041e+00 2.482279999999999820e+00 -8.136999999999999789e-02 4.153319999999999901e+00 1.536299999999999888e-01 -1.314200000000000090e-01 8.286239999999999384e+00 4.766029999999999767e+00 3.533000000000000029e-02 9.113999999999999879e-02 1.754389999999999894e+00 2.099000000000000199e+00 8.349579999999999558e+00 1.655610000000000026e+00 2.189410000000000078e+00 5.535449999999999982e+00 4.117779999999999774e+00 2.049900000000000055e+00 9.632999999999999119e+00 1.551200000000000079e-01 4.383070000000000022e+00 5.505760000000000431e+00 1.694730000000000070e+00 2.135540000000000216e+00 2.827420000000000044e+00 2.576550000000000118e+00 4.320199999999999818e+00 6.994790000000000063e+00 4.171520000000000117e+00 2.074370000000000047e+00 6.926050000000000040e+00
1.301199999999999912e+00 2.326579999999999870e+00 5.225499999999999590e-01 2.172779999999999934e+00 1.400700000000000001e-01 4.006800000000000139e+00 3.787739999999999885e+00 2.412669999999999870e+00 4.244799999999999685e+00 1.559050000000000047e+00 2.290639999999999787e+00 5.409189999999999721e+00 1.868919999999999915e+00 1.924960000000000004e+00 7.821620000000000239e+00 2.815609999999999946e+00 4.004330000000000389e+00 8.885479999999999379e+00 2.083909999999999929e+00 6.637999999999999456e-02 1.535519999999999996e+00 3.853800000000000114e+00 2.060869999999999980e+00 6.455610000000000070e+00 1.396519999999999984e+00 2.406550000000000189e+00 3.017389999999999795e+00 4.134949999999999903e+00 1.773050000000000015e+00 9.072800000000000864e+00 4.631020000000000358e+00 2.100599999999999967e-01 5.105520000000000280e+00 2.833299999999999930e+00 4.275830000000000020e+00 6.537079999999999558e+00 5.149799999999999933e-01 3.991140000000000132e+00 7.920399999999999885e+00 3.627769999999999939e+00 2.380059999999999842e+00 1.573660000000000059e+00 4.364860000000000184e+00 2.255300000000000082e-01 2.627219999999999889e+00 2.116500000000000048e-01 1.969700000000000062e-01 2.469999999999999973e-03
4.964540000000000397e+00 -4.616700000000000248e-01 1.901996000000000109e+01 1.100200000000000067e-01 -1.255000000000000004e-01 5.419139999999999624e+00 3.988820000000000032e+00 1.937789999999999901e+00 9.598309999999999675e+00 3.971200000000000063e+00 2.146450000000000191e+00 4.108060000000000045e+00 1.511560000000000015e+00 2.190199999999999925e+00 6.911000000000000476e-02 1.632830000000000004e+00 2.101840000000000153e+00 5.508659999999999890e+00 4.706920000000000215e+00 -2.713000000000000134e-02 2.768079999999999874e+00 2.305730000000000057e+00 4.213840000000000252e+00 6.859600000000000364e+00 1.620449999999999946e+00 2.034159999999999968e+00 8.245730000000000004e+00 2.457110000000000127e+00 4.111919999999999575e+00 9.619279999999999831e+00 3.922229999999999883e+00 1.967789999999999928e+00 6.813150000000000261e+00 3.874740000000000073e+00 2.143710000000000004e+00 1.307549999999999990e+00 2.364110000000000156e+00 4.258740000000000414e+00 4.081380000000000230e+00 2.336510000000000087e+00 4.354040000000000354e+00 1.367259999999999920e+00 4.731320000000000192e+00 4.170899999999999608e+00 8.227410000000000778e+00 1.596619999999999928e+00 2.155110000000000081e+00 2.784040000000000070e+00
1.170100000000000029e-01 6.976000000000000256e-02 2.787150000000000016e+00 1.781420000000000003e+00 2.358969999999999789e+00 8.292160000000000863e+00 2.595349999999999824e+00 4.576810000000000045e+00 9.533329999999999416e+00 4.815330000000000332e+00 4.519070000000000142e+00 5.538680000000000270e+00 1.674209999999999976e+00 2.314999999999999947e+00 2.708569999999999922e+00 2.862899999999999889e-01 1.325199999999999989e-01 8.224320000000000519e+00 2.581669999999999909e+00 4.546140000000000292e+00 6.906159999999999854e+00 4.200490000000000279e+00 2.348939999999999806e+00 9.513880000000000337e+00 2.456199999999999939e+00 1.154599999999999932e-01 4.090150000000000396e+00 4.078579999999999650e+00 2.333250000000000046e+00 4.183779999999999610e+00 1.488769999999999927e+00 2.243069999999999897e+00 7.538999999999999868e-02 4.693260000000000431e+00 4.458969999999999878e+00 2.180900000000000061e-01 3.912189999999999834e+00 2.297099999999999920e+00 1.323949999999999960e+00 4.111860000000000070e+00 2.302000000000000046e+00 6.980509999999999771e+00 2.344679999999999875e+00 2.794999999999999915e-02 1.470699999999999896e+00 1.821159999999999890e+00 2.333530000000000104e+00 5.600550000000000139e+00
1.711980000000000057e+00 2.225130000000000052e+00 5.500609999999999999e+00 4.090819999999999901e+00 2.280930000000000124e+00 9.525719999999999743e+00 4.130300000000000082e+00 2.241649999999999920e+00 6.859390000000000320e+00 1.556700000000000028e-01 4.452020000000000088e+00 5.465480000000000338e+00 2.469629999999999992e+00 5.258000000000000174e-02 4.117939999999999934e+00 4.931919999999999860e+00 4.444679999999999964e+00 2.983999999999999847e-02 2.485170000000000101e+00 2.970000000000000070e-02 9.571529999999999205e+00 4.979659999999999975e+00 4.452650000000000219e+00 8.233330000000000481e+00 4.952009999999999579e+00 4.437450000000000117e+00 2.759250000000000203e+00 2.424819999999999975e+00 3.617000000000000076e-02 1.367210000000000036e+00 1.710860000000000047e+00 2.184000000000000163e+00 2.699669999999999792e+00 1.724159999999999915e+00 2.251660000000000217e+00 8.198890000000000455e+00 4.110479999999999912e+00 2.190630000000000077e+00 4.082639999999999603e+00 1.770159999999999956e+00 2.237610000000000099e+00 1.597574999999999967e+01 4.129080000000000084e+00 2.226280000000000037e+00 1.335960000000000036e+00 2.596740000000000048e+00 4.433360000000000412e+00 6.874920000000000364e+00
1.198860000000000037e+00 2.036270000000000024e+00 4.657200000000000228e-01 2.519559999999999800e+00 4.200179999999999580e+00 3.877699999999999925e+00 3.755079999999999973e+00 1.914700000000000069e+00 4.187470000000000248e+00 1.682919999999999972e+00 2.308850000000000069e+00 5.344479999999999897e+00 1.624849999999999905e+00 2.423299999999999788e+00 7.923239999999999839e+00 2.628070000000000128e+00 2.615299999999999847e-01 8.720539999999999736e+00 2.270820000000000061e+00 4.258569999999999744e+00 1.453789999999999916e+00 4.130849999999999689e+00 2.488500000000000156e+00 6.552220000000000155e+00 1.334950000000000081e+00 1.898220000000000018e+00 2.858699999999999797e+00 4.039179999999999993e+00 2.185490000000000155e+00 9.397640000000000882e+00 1.678099999999999870e-01 8.946999999999999398e-02 5.173140000000000072e+00 2.836800000000000210e+00 2.658200000000000007e-01 6.242510000000000225e+00 2.951400000000000134e-01 2.023099999999999898e-01 7.728559999999999874e+00 3.594190000000000218e+00 2.049240000000000173e+00 1.523500000000000076e+00 4.587860000000000049e+00 4.093530000000000335e+00 2.749810000000000088e+00 4.491130000000000067e+00 9.700000000000000289e-03 5.391000000000000236e-01
3.529510000000000147e+00 2.403340000000000032e+00 3.965650000000000119e+00 3.490979999999999972e+00 2.496500000000000163e+00 8.856849999999999667e+00 2.312300000000000022e+00 2.121099999999999930e-01 9.082509999999999195e+00 4.264260000000000161e+00 4.063909999999999911e+00 9.261999999999999400e-02 3.403999999999999915e+00 1.775810000000000111e+00 1.600379999999999914e+00 1.867359999999999909e+00 1.745299999999999907e-01 6.611550000000000260e+00 -1.702000000000000041e-02 4.548070000000000057e+00 8.264279999999999404e+00 1.276110000000000078e+00 2.190809999999999924e+00 2.966089999999999893e+00 2.212239999999999984e+00 2.017599999999999949e-01 3.960440000000000182e+00 4.280700000000000394e+00 4.248380000000000045e+00 2.694770000000000110e+00 3.356469999999999843e+00 2.696390000000000065e+00 6.531690000000000218e+00 1.223629999999999995e+00 2.592579999999999885e+00 5.318249999999999922e+00 1.095469999999999944e+00 2.435599999999999987e+00 7.701880000000000059e+00 2.038370000000000015e+00 4.270010000000000083e+00 1.567909999999999915e+00 4.431390000000000384e+00 5.070200000000000262e-01 5.291159999999999641e+00 9.636000000000000121e-01 1.760620000000000074e+00 7.364800000000000235e-01
2.638720000000000176e+00 -1.583799999999999930e-01 9.345700000000000784e+00 1.302119999999999944e+00 2.163660000000000139e+00 4.638900000000000245e-01 3.861310000000000020e+00 2.340959999999999930e+00 1.423179999999999890e+00 4.174100000000000144e+00 2.046899999999999942e+00 4.080659999999999954e+00 2.470540000000000180e+00 4.382550000000000168e+00 1.513540000000000108e+00 4.754340000000000011e+00 6.178000000000000158e-02 2.766799999999999926e+00 2.572940000000000005e+00 3.785000000000000170e-02 4.170020000000000060e+00 1.975999999999999979e-01 -3.104000000000000162e-02 8.220769999999999911e+00 1.380300000000000138e-01 4.427050000000000374e+00 5.529199999999999671e-01 1.891329999999999956e+00 2.335620000000000029e+00 8.085750000000000881e+00 1.874489999999999990e+00 1.979300000000000059e+00 5.649740000000000428e+00 4.020249999999999879e+00 2.280829999999999913e+00 9.409359999999999502e+00 1.336199999999999888e-01 -8.223999999999999366e-02 5.397179999999999644e+00 1.559530000000000083e+00 2.081249999999999822e+00 2.898330000000000073e+00 2.502099999999999991e+00 4.273950000000000138e+00 6.670659999999999812e+00 4.184650000000000425e+00 1.931270000000000042e+00 7.015819999999999723e+00
4.701889999999999681e+00 9.149000000000000188e-02 2.638650000000000162e+00 4.779020000000000046e+00 1.610399999999999887e-01 5.410050000000000026e+00 4.090169999999999639e+00 2.419010000000000105e+00 9.364720000000000155e+00 1.569499999999999895e+00 2.184499999999999886e+00 7.169000000000000372e-02 1.733170000000000099e+00 2.327319999999999833e+00 8.086100000000000065e+00 2.465980000000000061e+00 4.580820000000000114e+00 9.433740000000000236e+00 2.442769999999999886e+00 4.510570000000000412e+00 6.675069999999999837e+00 4.671909999999999563e+00 4.910000000000000302e-03 9.342999999999999916e-02 1.536319999999999908e+00 2.317439999999999944e+00 2.696930000000000049e+00 2.375690000000000079e+00 8.315000000000000169e-02 1.383599999999999941e+00 2.358550000000000146e+00 4.486729999999999663e+00 4.087720000000000020e+00 4.027720000000000411e+00 2.338950000000000085e+00 6.703459999999999752e+00 1.635899999999999910e+00 2.278999999999999915e+00 5.327449999999999797e+00 3.905980000000000008e+00 2.257309999999999928e+00 1.360959999999999948e+00 4.005760000000000431e+00 2.268949999999999800e+00 4.099800000000000111e+00 4.829769999999999897e+00 1.763500000000000068e-01 8.088129999999999598e+00
1.739060000000000050e+00 2.162129999999999885e+00 5.465270000000000294e+00 4.229700000000000237e+00 2.124150000000000205e+00 9.596949999999999648e+00 3.995490000000000208e+00 2.307840000000000114e+00 6.911010000000000097e+00 4.854800000000000004e+00 1.362200000000000077e-01 5.518570000000000420e+00 2.632249999999999979e+00 4.373210000000000264e+00 4.054820000000000313e+00 6.267999999999999960e-02 3.672999999999999876e-02 1.213400000000000034e-01 2.499849999999999905e+00 4.356480000000000352e+00 9.407679999999999154e+00 1.035399999999999932e-01 7.975000000000000144e-02 8.169810000000000016e+00 4.697759999999999714e+00 1.324000000000000003e-02 2.602230000000000043e+00 2.415389999999999926e+00 4.383119999999999905e+00 1.513810000000000100e+00 1.698290000000000077e+00 2.109370000000000189e+00 2.724120000000000097e+00 1.772089999999999943e+00 2.141420000000000101e+00 8.082900000000000418e+00 4.269180000000000419e+00 2.193340000000000067e+00 4.230269999999999975e+00 1.700169999999999959e+00 2.399900000000000144e+00 1.597288999999999959e+01 4.074939999999999785e+00 2.285940000000000083e+00 1.253360000000000030e+00 2.564119999999999955e+00 1.655699999999999950e-01 6.973099999999999632e+00
1.152530000000000054e+00 2.306880000000000042e+00 6.257500000000000284e-01 2.259860000000000202e+00 1.945999999999999952e-01 4.032390000000000363e+00 3.835589999999999833e+00 2.516659999999999897e+00 4.117270000000000429e+00 1.711589999999999945e+00 2.365950000000000220e+00 5.428259999999999863e+00 1.750429999999999930e+00 1.836200000000000054e+00 7.966730000000000089e+00 2.908869999999999845e+00 4.046549999999999869e+00 8.896850000000000591e+00 1.921999999999999931e+00 1.583999999999999991e-02 1.627550000000000052e+00 3.909740000000000215e+00 2.079600000000000115e+00 6.557590000000000252e+00 1.393739999999999979e+00 2.422079999999999789e+00 3.000779999999999781e+00 4.144409999999999705e+00 1.837040000000000006e+00 8.908989999999999299e+00 3.781999999999999945e-02 1.040900000000000020e-01 5.115960000000000285e+00 2.877139999999999809e+00 4.155899999999999928e+00 6.509360000000000035e+00 4.916599999999999859e-01 4.087579999999999991e+00 8.042579999999999174e+00 3.612719999999999931e+00 2.292600000000000193e+00 1.379979999999999984e+00 4.313489999999999824e+00 2.296600000000000030e-01 2.602570000000000050e+00 3.351199999999999735e-01 2.252000000000000113e-01 1.777119000000000071e+01
2.801719999999999988e+00 -1.738800000000000068e-01 9.348890000000000811e+00 1.529989999999999961e+00 2.312390000000000168e+00 5.444700000000000095e-01 4.118439999999999657e+00 2.002730000000000121e+00 1.242469999999999963e+00 4.046470000000000233e+00 2.375329999999999941e+00 4.209710000000000285e+00 2.367750000000000021e+00 1.048999999999999932e-01 1.295520000000000005e+00 2.308600000000000096e-01 1.223800000000000027e-01 2.742770000000000152e+00 2.610980000000000079e+00 1.280999999999999917e-01 4.454010000000000247e+00 4.847640000000000171e+00 -1.382599999999999940e-01 8.018499999999999517e+00 2.840900000000000092e-01 6.360000000000000202e-03 1.788800000000000112e-01 1.610170000000000101e+00 2.045450000000000212e+00 8.280770000000000408e+00 1.469870000000000010e+00 2.025030000000000108e+00 5.822770000000000223e+00 3.847249999999999837e+00 1.966139999999999999e+00 9.137650000000000716e+00 4.886140000000000150e+00 -9.002000000000000279e-02 5.512850000000000250e+00 1.940420000000000034e+00 2.042800000000000171e+00 2.910759999999999792e+00 2.526980000000000004e+00 4.317859999999999587e+00 7.033890000000000420e+00 3.910109999999999975e+00 1.977419999999999956e+00 6.930399999999999672e+00
2.432510000000000172e+00 4.382130000000000081e+00 1.584610000000000074e+00 3.902979999999999894e+00 2.708180000000000032e+00 8.940139999999999532e+00 1.471049999999999969e+00 1.962199999999999944e+00 5.814000000000000279e-01 2.836920000000000108e+00 3.563999999999999946e-01 9.283179999999999765e+00 4.600380000000000358e+00 4.340139999999999887e+00 5.313729999999999620e+00 2.547429999999999861e+00 3.090000000000000038e-02 4.101499999999999702e+00 2.532129999999999992e+00 -5.648999999999999855e-02 6.763480000000000381e+00 4.174509999999999721e+00 1.953419999999999934e+00 3.849810000000000176e+00 3.921240000000000059e+00 2.040840000000000209e+00 1.480439999999999978e+00 1.620679999999999898e+00 2.188619999999999788e+00 3.091920000000000002e+00 1.855900000000000050e-01 4.182640000000000136e+00 2.813810000000000144e+00 3.810259999999999980e+00 2.165599999999999969e+00 6.528260000000000396e+00 1.028400000000000009e-01 4.320459999999999745e+00 5.233799999999999564e-01 1.489419999999999966e+00 1.873830000000000107e+00 5.533979999999999677e+00 1.595150000000000068e+00 2.452310000000000212e+00 7.953820000000000334e+00 2.485700000000000132e-01 1.544599999999999862e-01 7.795469999999999899e+00
1.680800000000000072e+00 1.150530000000000053e+00 1.257488000000000028e+01 6.216599999999999904e-01 3.364069999999999894e+00 8.416900000000000492e-01 1.580559999999999965e+00 1.719729999999999981e+00 2.509259999999999824e+00 2.569049999999999834e+00 5.880300000000000527e-01 6.746100000000000207e+00 2.887259999999999938e+00 3.815719999999999779e+00 1.650560000000000027e+00 4.529679999999999929e+00 9.630900000000000016e-01 8.127280000000000726e+00 2.773029999999999884e+00 4.388959999999999972e+00 4.389980000000000437e+00 1.207629999999999981e+00 3.225779999999999870e+00 7.757859999999999978e+00 5.081599999999999451e-01 4.135629999999999917e+00 3.139139999999999819e+00 3.513100000000000112e+00 3.405559999999999921e+00 8.564809999999999590e+00 2.221680000000000099e+00 1.265879999999999894e+00 9.109360000000000568e+00 3.536830000000000140e+00 2.749839999999999840e+00 6.204530000000000101e+00 1.538899999999999935e+00 2.421499999999999986e+00 5.035890000000000200e+00 2.528400000000000092e-01 2.277299999999999880e-01 5.729510000000000325e+00 3.939799999999999969e+00 1.367839999999999945e+00 1.353180000000000049e+00 3.766579999999999817e+00 2.087460000000000093e+00 3.811749999999999972e+00
1.520000000000000084e-03 4.475990000000000357e+00 2.694389999999999841e+00 1.041300000000000003e-01 1.072499999999999981e-01 5.395059999999999967e+00 4.063089999999999868e+00 2.399760000000000115e+00 9.437089999999999534e+00 1.533679999999999932e+00 2.216359999999999886e+00 2.360000000000000119e-03 1.692530000000000090e+00 2.373790000000000067e+00 8.091850000000000875e+00 2.476789999999999825e+00 4.605139999999999567e+00 9.443749999999999645e+00 2.422909999999999897e+00 4.552330000000000432e+00 6.735199999999999854e+00 4.689939999999999998e+00 5.729999999999999850e-03 9.700000000000000505e-04 1.587900000000000089e+00 2.265579999999999927e+00 2.697999999999999954e+00 2.367519999999999847e+00 3.155000000000000165e-02 1.352190000000000003e+00 2.424360000000000070e+00 8.332000000000000517e-02 4.041710000000000136e+00 4.015360000000000262e+00 2.349139999999999784e+00 6.750180000000000291e+00 1.639720000000000066e+00 2.323819999999999997e+00 5.389230000000000409e+00 3.911770000000000191e+00 2.246570000000000178e+00 1.354889999999999928e+00 3.965240000000000098e+00 2.293390000000000040e+00 4.046030000000000015e+00 4.791400000000000325e+00 4.584579999999999878e+00 8.088609999999999189e+00