1.407730000000000092e-01 1.587220000000000020e-01 -7.829789999999999806e-01 -1.654450000000000087e-01 -2.630330000000000168e-01 9.387099999999999611e-02 3.543939999999999868e-01 -7.041640000000000121e-01 -9.424609999999999932e-01 7.395629999999999704e-01 9.348530000000000451e-01 -1.599230000000000096e-01 -6.179599999999999677e-02 2.827160000000000228e-01 2.300679999999999947e-01 -5.966660000000000297e-01 7.755300000000000527e-01 3.135100000000000109e-01 6.847699999999999620e-02 2.471849999999999881e-01 3.662599999999999884e-02 -4.194129999999999803e-01 -9.761769999999999614e-01 9.887049999999999450e-01 -6.310879999999999823e-01 4.267989999999999839e-01 4.211100000000000260e-02 -4.170490000000000030e-01 3.250589999999999868e-01 -1.356900000000000051e-01 1.555570000000000008e-01 2.393029999999999879e-01 -4.923100000000000254e-01 9.570299999999999641e-02 1.724630000000000052e-01 -4.553999999999999888e-03 -2.786719999999999753e-01 1.453849999999999865e-01 4.531810000000000005e-01 1.739699999999999927e-02 -3.906169999999999920e-01 -1.257079999999999864e-01 9.256459999999999688e-01 -4.735630000000000117e-01 3.942579999999999973e-01 7.262000000000000399e-02 -9.004600000000000382e-01 9.129500000000000115e-02
-4.210499999999999660e-02 4.663500000000000284e-02 4.495999999999999996e-02 2.066499999999999934e-02 -8.503800000000000248e-02 5.535500000000000143e-02 1.731000000000000039e-01 -6.901000000000000016e-03 -1.117119999999999891e+00 -8.660299999999999943e-02 -2.960399999999999837e-02 1.012000000000000096e-03 3.179200000000000081e-02 -4.682200000000000251e-02 5.727899999999999658e-02 -8.143300000000000538e-02 5.785900000000000071e-02 3.870000000000000176e-03 -7.720000000000000299e-03 5.148699999999999805e-02 -2.558399999999999910e-02 -2.053099999999999925e-01 -1.929099999999999912e-02 -1.087525999999999993e+00 -5.199399999999999855e-02 4.391899999999999971e-02 -5.484599999999999892e-02 9.518300000000000372e-02 -4.501299999999999746e-02 4.682599999999999957e-02 -1.115860000000000046e-01 3.624399999999999844e-02 1.050483999999999973e+00 1.893060000000000020e-01 -2.490200000000000052e-02 1.050921999999999912e+00 -3.515200000000000269e-02 3.563100000000000295e-02 1.890000000000000013e-02 2.045399999999999996e-02 -1.634899999999999895e-02 -3.383999999999999855e-03 5.169499999999999790e-02 -2.005499999999999991e-02 6.070000000000000092e-04 3.970499999999999724e-02 2.220000000000000098e-02 -4.175299999999999845e-02
-7.055649999999999977e-01 9.527599999999999958e-02 3.311720000000000219e-01 7.118200000000000083e-01 -1.147589999999999999e-01 -1.832809999999999995e-01 4.010099999999999776e-01 -4.631060000000000176e-01 -4.685899999999999788e-02 1.662299999999999889e-02 4.294599999999999806e-02 -6.076999999999999937e-03 7.232199999999999740e-02 1.780859999999999943e-01 3.724600000000000133e-02 -4.504770000000000163e-01 -5.143799999999999761e-02 1.291069999999999995e-01 -2.046169999999999933e-01 4.027300000000000324e-02 -5.823629999999999640e-01 -3.756500000000000117e-02 1.826669999999999960e-01 1.147658999999999985e+00 -2.375919999999999976e-01 -6.531879999999999908e-01 -1.076300000000000034e-01 7.279189999999999827e-01 7.275099999999999623e-02 -1.137224999999999930e+00 1.039920000000000011e-01 -1.821299999999999863e-01 -4.737640000000000184e-01 9.051099999999999424e-02 6.712999999999999523e-02 -3.221859999999999724e-01 3.059910000000000130e-01 6.083420000000000494e-01 5.733789999999999720e-01 1.741510000000000002e-01 2.243070000000000064e-01 6.369200000000000417e-01 -8.849350000000000271e-01 2.005190000000000028e-01 2.180670000000000108e-01 -8.358799999999999564e-02 -2.476740000000000053e-01 -2.141659999999999953e-01
2.552300000000000055e-02 1.242999999999999964e-03 -9.367000000000000326e-03 2.043100000000000124e-02 3.800000000000000209e-04 -1.702899999999999900e-02 -2.119590000000000085e-01 3.359999999999999814e-04 1.134049000000000085e+00 -2.934799999999999909e-02 -1.702800000000000147e-02 -2.431000000000000001e-03 1.443799999999999945e-02 -2.023000000000000059e-03 7.329999999999999710e-03 -2.222999999999999976e-02 6.721000000000000411e-03 1.658099999999999852e-02 -2.343800000000000050e-02 8.906999999999999987e-03 -1.309000000000000051e-03 1.854600000000000137e-01 8.697999999999999135e-03 1.145229000000000052e+00 5.682899999999999757e-02 1.209299999999999958e-02 1.010999999999999963e-03 2.103079999999999949e-01 -5.178000000000000311e-03 -1.133464000000000027e+00 -1.850050000000000028e-01 -4.364999999999999956e-03 -1.147153000000000089e+00 3.339199999999999807e-02 -1.282800000000000086e-02 -3.150000000000000022e-03 -5.434699999999999948e-02 6.740000000000000114e-04 5.854999999999999961e-03 -2.436500000000000124e-02 -4.688999999999999592e-03 7.669999999999999735e-03 5.271399999999999697e-02 -3.350000000000000113e-03 -1.237199999999999932e-02 -4.840400000000000258e-02 1.040899999999999985e-02 8.550999999999999573e-03
-3.510690000000000199e-01 3.245100000000000068e-02 5.875099999999999767e-02 -1.119400000000000082e-02 -2.054489999999999927e-01 -1.773029999999999884e-01 -4.851000000000000277e-03 1.569999999999999998e-03 1.066289999999999960e+00 -1.593120000000000092e-01 3.486770000000000147e-01 3.273199999999999721e-02 1.822890000000000066e-01 6.163330000000000197e-01 -5.133210000000000273e-01 2.599159999999999804e-01 -7.231330000000000258e-01 6.967780000000000085e-01 -1.144600000000000062e-01 -2.461699999999999999e-02 -2.368530000000000080e-01 -2.098849999999999882e-01 -1.741240000000000010e-01 -1.654390000000000027e-01 2.562639999999999918e-01 2.815230000000000232e-01 -1.145779999999999993e-01 -7.873499999999999943e-01 8.650759999999999561e-01 -1.440869999999999929e-01 -4.022930000000000117e-01 5.812900000000000011e-02 3.027250000000000218e-01 -6.459439999999999626e-01 -7.859669999999999712e-01 3.930000000000000160e-01 8.326679999999999637e-01 -4.158540000000000014e-01 -5.926369999999999694e-01 7.949680000000000080e-01 9.576999999999999402e-02 -4.673189999999999844e-01 1.156676999999999955e+00 -1.143615000000000048e+00 8.144899999999999363e-02 -7.964259999999999673e-01 1.173230999999999913e+00 -2.201869999999999938e-01
-3.041280000000000094e-01 1.129420000000000007e-01 7.792149999999999910e-01 -1.226501000000000063e+00 -9.378640000000000310e-01 -1.716820000000000013e-01 -5.629300000000000415e-01 8.626999999999999252e-03 -3.844350000000000267e-01 -1.471840000000000093e-01 8.012099999999999778e-02 -6.764160000000000172e-01 3.521259999999999946e-01 1.151523000000000074e+00 6.447700000000000653e-02 8.611680000000000446e-01 -7.614480000000000137e-01 7.722470000000000168e-01 8.049290000000000056e-01 9.670870000000000299e-01 1.303350000000000064e-01 5.876440000000000552e-01 4.075460000000000194e-01 7.576720000000000121e-01 -5.382369999999999655e-01 2.032670000000000032e-01 -8.426829999999999599e-01 -4.312670000000000115e-01 -1.715740000000000043e-01 6.099399999999999961e-02 3.951830000000000065e-01 -1.101709999999999967e+00 -2.540540000000000020e-01 4.577890000000000015e-01 6.747699999999999532e-02 -8.553260000000000307e-01 6.787330000000000307e-01 -9.796110000000000095e-01 3.402259999999999729e-01 5.397030000000000438e-01 1.076902999999999944e+00 4.297909999999999786e-01 -1.545068000000000108e+00 -5.054210000000000091e-01 -7.693889999999999896e-01 7.803999999999999826e-02 3.821350000000000025e-01 6.190290000000000514e-01
-1.844010000000000093e-01 -1.117900000000000005e-01 7.574579999999999647e-01 -1.877739999999999965e-01 8.352999999999999314e-02 1.151340000000000002e-01 1.693949999999999900e-01 7.888599999999999779e-02 8.320800000000000418e-02 -1.448810000000000098e-01 5.251399999999999818e-02 7.136800000000000088e-02 6.328300000000000591e-02 -7.650899999999999368e-02 3.061399999999999885e-02 5.525399999999999756e-02 -8.765299999999999481e-02 -6.697500000000000675e-02 -3.479399999999999854e-02 2.178300000000000028e-02 4.878299999999999997e-02 1.047720000000000040e-01 -4.685500000000000081e-02 2.566539999999999933e-01 8.762499999999999456e-02 7.348399999999999377e-02 4.768599999999999922e-02 8.461200000000000665e-02 -8.475900000000000101e-02 -6.969999999999999807e-02 2.276690000000000103e-01 -8.123099999999999765e-02 1.007036000000000042e+00 1.210000000000000002e-04 1.056160000000000015e-01 -1.121759999999999979e-01 -1.642639999999999934e-01 3.280000000000000038e-04 -1.025554000000000077e+00 -5.843199999999999783e-02 -2.276699999999999904e-02 -1.281100000000000017e-01 -1.647119999999999973e-01 7.850400000000000433e-02 1.966599999999999945e-02 1.465279999999999916e-01 1.691900000000000001e-02 -1.035090000000000066e+00
-1.133569999999999994e-01 6.335499999999999465e-02 1.255999999999999894e-01 -9.453400000000000691e-02 -7.135099999999999776e-02 2.101750000000000007e-01 1.346050000000000024e-01 1.554629999999999901e-01 -6.656399999999999817e-02 -1.984039999999999970e-01 -1.437219999999999887e-01 -6.669389999999999485e-01 -9.798300000000000065e-02 -2.287199999999999997e-02 -1.558970000000000078e-01 -1.009039999999999937e-01 -9.718899999999999761e-02 8.403230000000000421e-01 1.621340000000000003e-01 8.103000000000000827e-03 7.906699999999999839e-02 3.094560000000000088e-01 7.636099999999999832e-02 1.094363999999999892e+00 -5.199700000000000155e-02 5.705199999999999855e-02 -2.015799999999999884e-02 -2.425930000000000031e-01 -1.283829999999999971e-01 -1.358479999999999965e-01 5.044699999999999879e-02 2.284399999999999972e-02 -2.058000000000000107e-02 2.544230000000000103e-01 -1.358669999999999878e-01 -2.667470000000000119e-01 -2.153700000000000059e-02 -1.748679999999999957e-01 -9.068800000000000472e-02 -2.391689999999999927e-01 2.158569999999999933e-01 2.431059999999999888e-01 2.137599999999999917e-02 1.827239999999999975e-01 -8.743199999999999583e-02 2.280369999999999897e-01 -7.507999999999999917e-03 -1.081781000000000104e+00
-7.391090000000000160e-01 -6.064599999999999852e-02 -5.271200000000000191e-02 -5.984350000000000502e-01 -4.133910000000000085e-01 -3.232659999999999978e-01 -1.347490000000000077e-01 -6.877000000000000300e-03 1.084022000000000041e+00 1.923300000000000010e-01 -1.701670000000000127e-01 -3.932209999999999872e-01 -5.506320000000000103e-01 5.523900000000000338e-02 1.175540000000000029e+00 -5.725999999999999840e-02 1.771400000000000058e-02 -6.871589999999999643e-01 1.026601000000000097e+00 7.562000000000000666e-02 1.014572000000000029e+00 -2.488239999999999896e-01 -2.770690000000000097e-01 9.122329999999999606e-01 -1.021930999999999923e+00 -8.521700000000000108e-02 -1.348297999999999996e+00 1.964568000000000092e+00 -8.161119999999999486e-01 7.617599999999999372e-02 1.182399999999999944e-02 7.711310000000000109e-01 -1.544682000000000111e+00 3.079359999999999875e-01 -2.263050000000000062e-01 1.814030000000000087e-01 6.028520000000000545e-01 1.889409999999999978e-01 4.199769999999999892e-01 -6.928640000000000354e-01 4.019179999999999975e-01 -6.562500000000000278e-02 5.021799999999999597e-01 3.849279999999999924e-01 -3.721780000000000088e-01 -5.644850000000000145e-01 1.602949999999999930e-01 -7.678200000000000303e-02
1.931090000000000029e-01 4.695400000000000268e-02 -1.073585999999999929e+00 -1.754110000000000114e-01 -3.261800000000000116e-02 1.165797999999999890e+00 -9.651999999999999469e-02 -6.111400000000000166e-02 4.202000000000000179e-02 3.700599999999999723e-02 -9.253500000000000614e-02 -8.325000000000000802e-03 -9.540999999999999134e-03 -5.470300000000000162e-02 7.928599999999999537e-02 4.567700000000000232e-02 1.236430000000000029e-01 6.471799999999999775e-02 -3.479800000000000254e-02 -1.970900000000000082e-02 2.750500000000000167e-02 3.530799999999999911e-02 -9.413299999999999446e-02 -1.460499999999999993e-02 2.845249999999999724e-01 -4.145800000000000179e-02 9.987249999999999739e-01 -5.082199999999999912e-02 -4.410000000000000031e-02 -8.838300000000000323e-02 1.433470000000000022e-01 -1.097670000000000035e-01 2.147699999999999956e-02 -1.772519999999999929e-01 4.148799999999999710e-02 -1.074780000000000069e+00 -9.169499999999999873e-02 7.546700000000000630e-02 5.396999999999999714e-02 -1.100199999999999963e-02 1.200579999999999981e-01 -5.164099999999999940e-02 -7.149400000000000199e-02 8.007300000000000528e-02 -1.390629999999999922e-01 -2.043800000000000130e-02 6.245499999999999663e-02 -3.115999999999999846e-03
6.488199999999999523e-02 -5.863999999999999768e-02 1.314400000000000013e-01 4.975720000000000143e-01 2.548710000000000142e-01 1.088800000000000046e-01 -1.344690000000000052e-01 1.387670000000000015e-01 -1.649788000000000032e+00 -2.222790000000000044e-01 7.013300000000000090e-02 2.317089999999999983e-01 -5.418070000000000386e-01 -3.317919999999999758e-01 6.734769999999999923e-01 1.495489999999999875e-01 6.139200000000000212e-02 2.645029999999999881e-01 2.992650000000000032e-01 4.766690000000000094e-01 -2.190010000000000012e-01 9.223710000000000520e-01 1.885680000000000134e-01 1.708412000000000042e+00 -3.380099999999999771e-02 -2.726930000000000187e-01 -5.990480000000000249e-01 4.815799999999999942e-02 8.815000000000000613e-02 -7.423699999999999743e-01 3.965620000000000256e-01 -5.253590000000000204e-01 1.316289999999999960e-01 -9.499610000000000554e-01 -8.713400000000000312e-02 -3.134060000000000179e-01 -1.662019999999999886e-01 2.739719999999999933e-01 -3.196280000000000232e-01 2.983399999999999941e-02 -1.233159999999999951e-01 -4.227999999999999814e-02 2.425789999999999891e-01 -8.225899999999999879e-02 -1.106319999999999942e-01 -6.022520000000000095e-01 -7.133000000000000451e-02 7.461029999999999607e-01
2.306479999999999919e-01 -1.152129999999999960e-01 1.057306999999999997e+00 -6.708999999999999686e-02 1.145299999999999964e-02 1.632160000000000000e-01 -1.629210000000000103e-01 3.791400000000000325e-02 -1.025584999999999969e+00 -3.556700000000000139e-02 -1.420079999999999953e-01 -8.541999999999999246e-03 -1.337990000000000013e-01 -1.764100000000000043e-02 9.135450000000000514e-01 -5.190299999999999775e-02 -1.612349999999999894e-01 -6.724600000000000022e-02 9.252299999999999414e-02 -7.275500000000000023e-02 -1.728889999999999871e-01 7.723099999999999410e-02 9.521799999999999708e-02 4.581000000000000003e-03 1.412000000000000061e-03 -1.679809999999999914e-01 -1.341700000000000011e-02 8.818299999999999750e-02 9.451800000000000479e-02 -1.048923999999999968e+00 1.780090000000000006e-01 1.307490000000000041e-01 1.011630000000000029e-01 4.535499999999999948e-02 1.207290000000000030e-01 9.242899999999999727e-02 -1.057300000000000045e-01 2.324360000000000037e-01 1.007699999999999985e-01 -1.359140000000000070e-01 2.383800000000000155e-02 -1.663299999999999848e-02 -5.130500000000000338e-02 3.213200000000000084e-02 2.995000000000000093e-02 3.086799999999999961e-02 -1.021520000000000067e-01 -1.097250000000000031e-01
-2.224919999999999953e-01 -6.854999999999999982e-03 1.685309999999999864e-01 9.353000000000000203e-02 -5.601400000000000129e-02 -4.719299999999999884e-02 2.427559999999999996e-01 4.177100000000000257e-02 -9.209420000000000384e-01 1.301499999999999879e-01 1.093989999999999962e-01 -1.055880000000000013e-01 -1.434700000000000038e-02 -5.024999999999999953e-03 2.120930000000000037e-01 -1.532799999999999996e-01 -1.402289999999999925e-01 5.074000000000000038e-02 -6.946599999999999997e-02 9.927800000000000513e-02 -1.003860000000000030e-01 -2.869840000000000169e-01 2.527499999999999886e-02 -7.312830000000000163e-01 -1.816100000000000006e-02 -8.567700000000000315e-02 1.947540000000000104e-01 1.619200000000000153e-02 -4.838400000000000339e-02 -1.675400000000000153e-02 -4.736400000000000332e-02 1.979999999999999989e-03 1.014925000000000077e+00 2.410029999999999950e-01 1.713890000000000136e-01 6.646589999999999998e-01 -3.786199999999999982e-02 -1.483490000000000086e-01 2.049140000000000128e-01 1.117100000000000037e-01 4.759499999999999842e-02 -2.837720000000000242e-01 1.537830000000000030e-01 2.788200000000000053e-02 -1.576849999999999918e-01 -1.391670000000000129e-01 -3.403699999999999781e-02 -1.470130000000000048e-01
3.863999999999999813e-03 2.488399999999999987e-02 -5.678199999999999914e-02 -1.605100000000000138e-01 -6.861000000000000432e-02 -1.017889999999999961e+00 9.073599999999999721e-02 -4.911800000000000194e-02 -6.560299999999999465e-02 -2.961499999999999896e-02 -1.063300000000000009e-02 3.282199999999999701e-02 -4.961600000000000038e-02 -1.617010000000000114e-01 4.475999999999999944e-03 2.372559999999999947e-01 7.550000000000000287e-04 1.062926999999999955e+00 1.691159999999999886e-01 1.362000000000000016e-02 -1.100295999999999941e+00 8.865900000000000170e-02 5.745800000000000213e-02 -5.116899999999999921e-02 3.102999999999999856e-03 -1.944200000000000095e-02 -5.432900000000000229e-02 6.363800000000000012e-02 -1.258759999999999879e-01 -1.715900000000000064e-02 -2.841999999999999908e-03 1.569570000000000132e-01 5.958999999999999714e-02 -9.461899999999999478e-02 -3.344199999999999950e-02 2.387299999999999839e-02 5.098400000000000154e-02 1.062069999999999959e-01 5.640799999999999981e-02 -2.024910000000000043e-01 2.407300000000000065e-02 1.139420000000000099e+00 -6.425999999999999768e-02 4.373000000000000151e-03 4.100600000000000078e-02 -1.034029999999999949e-01 8.049399999999999611e-02 -5.729299999999999671e-02
3.612279999999999935e-01 5.032419999999999671e-01 -3.798499999999999793e-02 -7.276909999999999767e-01 -2.221849999999999936e-01 2.434739999999999960e-01 6.503499999999999559e-02 9.269929999999999559e-01 -8.058779999999999832e-01 -3.268320000000000114e-01 -5.434999999999999727e-03 1.887270000000000059e-01 5.157260000000000177e-01 -1.297939999999999927e-01 1.748800000000000077e-01 -1.438200000000000069e-02 -3.351129999999999942e-01 3.218100000000000127e-02 9.792900000000000216e-02 -2.587320000000000175e-01 -2.647570000000000201e-01 -3.829580000000000206e-01 -5.008559999999999679e-01 7.408550000000000413e-01 2.068170000000000008e-01 2.587630000000000208e-01 3.133099999999999774e-01 -2.009999999999999981e-02 2.770409999999999817e-01 -1.245938999999999908e+00 1.876986999999999961e+00 -6.093840000000000368e-01 -3.034970000000000168e-01 -1.919670999999999905e+00 1.621940000000000048e-01 9.634369999999999878e-01 2.001340000000000063e-01 3.413160000000000083e-01 2.058699999999999974e-01 -3.212880000000000180e-01 2.353490000000000026e-01 2.634870000000000267e-01 5.346090000000000009e-01 -1.100140000000000007e-01 7.904520000000000435e-01 -1.455420000000000047e-01 -5.333839999999999693e-01 -1.258618000000000015e+00
-1.807100000000000026e-02 -6.816700000000000537e-02 8.368309999999999915e-01 -2.630839999999999845e-01 -6.151870000000000394e-01 4.119849999999999901e-01 1.517090000000000105e-01 6.192299999999999888e-02 -4.600500000000000145e-01 1.311380000000000046e-01 -1.657600000000000046e-02 1.174587999999999965e+00 -2.695190000000000086e-01 7.303239999999999732e-01 -3.093000000000000194e-01 5.391049999999999454e-01 5.233430000000000026e-01 -1.269389999999999963e-01 -5.803580000000000405e-01 8.061300000000000132e-01 -3.553790000000000004e-01 -4.402179999999999982e-01 3.301279999999999770e-01 7.105000000000000204e-02 -2.254710000000000047e-01 -4.636179999999999746e-01 8.182749999999999746e-01 7.999309999999999476e-01 4.405450000000000199e-01 -3.224409999999999776e-01 6.483740000000000059e-01 -1.087069999999999981e-01 -6.020919999999999606e-01 -2.982600000000000251e-01 4.764800000000000285e-02 -2.663479999999999737e-01 2.259009999999999907e-01 -4.139100000000000001e-01 6.787750000000000172e-01 -3.539050000000000251e-01 -9.303320000000000478e-01 -5.286100000000000243e-01 -2.115289999999999948e-01 -5.422620000000000218e-01 -1.078899999999999998e-02 1.642569999999999864e-01 2.187179999999999958e-01 -1.009554000000000062e+00
9.672500000000000542e-02 4.784640000000000004e-01 -7.835889999999999800e-01 4.297369999999999801e-01 -4.161999999999999901e-03 3.860230000000000050e-01 -2.285059999999999869e-01 -5.772380000000000289e-01 4.282050000000000023e-01 -3.696909999999999918e-01 6.470620000000000260e-01 5.517999999999999572e-01 -1.453599999999999892e-01 3.217630000000000212e-01 1.385800000000000087e-01 8.808299999999999463e-02 -4.460950000000000193e-01 1.221853000000000078e+00 -1.714769999999999905e-01 -4.868100000000000205e-01 -1.802590000000000026e-01 1.970969999999999944e-01 -3.733730000000000104e-01 -1.184499999999999963e-02 -1.625700000000000062e-02 1.356040000000000023e-01 -9.622540000000000537e-01 -6.277300000000000102e-01 -5.365609999999999546e-01 4.157779999999999809e-01 -2.775900000000000034e-01 3.187400000000000233e-01 -5.664080000000000226e-01 2.204299999999999871e-01 -2.148650000000000004e-01 -4.389069999999999916e-01 3.898499999999999882e-02 -1.710720000000000018e-01 9.193600000000000383e-02 4.492120000000000002e-01 2.684340000000000059e-01 1.620659999999999878e-01 2.123599999999999932e-01 2.226750000000000118e-01 2.806290000000000173e-01 1.039839999999999931e-01 4.174340000000000273e-01 -7.336099999999999843e-01
2.661300000000000124e-02 -7.643700000000000494e-02 2.881440000000000112e-01 8.586199999999999388e-02 -2.447809999999999986e-01 -9.843699999999999672e-02 -2.167640000000000122e-01 -7.307099999999999707e-02 -8.686000000000000387e-01 -1.936329999999999996e-01 1.264710000000000001e-01 8.934229999999999672e-01 -8.429399999999999393e-02 5.491100000000000148e-02 9.825999999999999665e-03 1.344120000000000037e-01 -1.774299999999999836e-02 -1.062408999999999937e+00 -1.659380000000000022e-01 5.269599999999999979e-02 2.142840000000000023e-01 2.449369999999999881e-01 4.986499999999999960e-02 7.375460000000000349e-01 1.991410000000000124e-01 -6.394400000000000084e-02 2.010899999999999840e-02 -2.700899999999999829e-02 -1.351729999999999876e-01 -5.315600000000000186e-02 -5.121999999999999817e-03 4.028400000000000036e-02 -2.309009999999999951e-01 5.252400000000000124e-02 4.898000000000000270e-02 1.317349999999999910e-01 8.350499999999999590e-02 9.273299999999999599e-02 2.197479999999999989e-01 -7.686900000000000677e-02 3.853800000000000281e-02 -7.488999999999999997e-03 -1.636370000000000047e-01 1.523629999999999984e-01 -2.098550000000000137e-01 1.062720000000000053e-01 -4.569200000000000345e-02 1.603299999999999864e-02
2.755900000000000016e-02 1.567969999999999919e-01 -1.280000000000000027e-01 -1.995089999999999919e-01 1.379670000000000063e-01 -1.160357000000000083e+00 5.174950000000000383e-01 1.302449999999999997e-01 -1.274669999999999970e-01 8.280999999999999472e-02 -4.001879999999999882e-01 -5.590000000000000351e-03 -1.348389999999999866e-01 2.435899999999999871e-02 2.688960000000000239e-01 7.971100000000000407e-02 1.018629999999999952e-01 6.511059999999999626e-01 3.176340000000000274e-01 -2.386999999999999886e-02 -5.512590000000000545e-01 -4.887500000000000178e-02 -2.044189999999999896e-01 1.055799999999999968e-02 1.535710000000000131e-01 2.878700000000000009e-02 4.338960000000000039e-01 1.582510000000000028e-01 1.573499999999999899e-02 -3.440779999999999950e-01 -8.925999999999999907e-03 1.713379999999999903e-01 1.076330000000000064e-01 -4.867879999999999985e-01 5.944070000000000187e-01 5.170430000000000303e-01 -2.096919999999999895e-01 2.891699999999999826e-01 -2.916960000000000108e-01 -1.444689999999999863e-01 -2.216730000000000089e-01 1.137515999999999972e+00 -6.112399999999999778e-02 -7.387900000000000023e-02 1.624099999999999988e-01 -4.280899999999999983e-02 -7.266390000000000349e-01 -6.806100000000000483e-01
9.237710000000000088e-01 -6.176700000000000246e-02 -5.417509999999999826e-01 2.067999999999999960e-03 2.939510000000000178e-01 2.480189999999999895e-01 -2.583750000000000213e-01 -8.331579999999999542e-01 -3.859259999999999913e-01 -8.483060000000000045e-01 -5.856649999999999912e-01 7.930700000000000249e-02 3.408390000000000031e-01 2.023780000000000023e-01 -1.896720000000000073e-01 -5.858330000000000481e-01 -9.285400000000000598e-02 2.162630000000000108e-01 8.838470000000000493e-01 5.636949999999999461e-01 -4.760920000000000152e-01 9.278640000000000221e-01 -5.487710000000000088e-01 2.667299999999999879e-02 2.484139999999999959e-01 -3.732199999999999962e-01 -1.334899999999999975e-02 -3.796410000000000062e-01 1.590709999999999902e-01 3.662079999999999780e-01 7.769120000000000470e-01 5.292540000000000022e-01 1.406409999999999882e-01 -1.053045999999999927e+00 1.141990000000000061e+00 2.596249999999999947e-01 6.017909999999999648e-01 -3.199730000000000074e-01 -6.847889999999999810e-01 -9.670210000000000194e-01 1.577860000000000096e-01 4.579099999999999837e-01 5.003500000000000308e-02 -7.663399999999999379e-02 -1.337790000000000090e-01 -6.633200000000000207e-01 -1.560829999999999995e-01 6.307110000000000216e-01
-5.292519999999999447e-01 -4.550219999999999820e-01 1.096229999999999982e-01 5.002240000000000020e-01 2.203060000000000018e-01 -1.655210000000000015e-01 -8.919930000000000359e-01 5.606269999999999865e-01 5.862610000000000321e-01 2.990470000000000073e-01 -1.941150000000000098e-01 1.090340000000000059e-01 9.111249999999999627e-01 -4.302650000000000086e-01 4.635449999999999848e-01 -2.796139999999999737e-01 -2.613150000000000195e-01 4.129109999999999725e-01 -1.529939999999999911e-01 -2.755719999999999836e-01 -2.624500000000000166e-01 6.631209999999999605e-01 -3.728909999999999725e-01 1.752509999999999901e-01 -5.084370000000000278e-01 -3.010700000000000043e-01 4.644420000000000215e-01 -5.363480000000000469e-01 1.006979999999999958e-01 -1.736800000000000149e-02 1.642049999999999899e-01 3.471069999999999989e-01 -5.706940000000000346e-01 5.889440000000000230e-01 5.518089999999999939e-01 1.162069999999999936e+00 1.545169999999999877e-01 -1.245959999999999984e-01 -2.156210000000000071e-01 -1.655540000000000067e-01 3.907530000000000170e-01 3.830410000000000204e-01 -4.037549999999999750e-01 -1.381290000000000018e-01 -8.653530000000000388e-01 1.867649999999999866e-01 3.816749999999999865e-01 -1.769171000000000049e+00
1.092049999999999965e-01 -4.058030000000000248e-01 -2.259600000000000150e-02 -5.962300000000000239e-02 -7.039429999999999854e-01 -7.161700000000000010e-02 5.338249999999999940e-01 4.696029999999999927e-01 9.937699999999999312e-02 -4.156969999999999832e-01 3.593149999999999955e-01 -7.681090000000000417e-01 6.390050000000000452e-01 -3.881000000000000005e-01 1.093689999999999940e-01 -5.414139999999999509e-01 -4.878819999999999824e-01 1.036109999999999948e-01 -7.560999999999999666e-02 -4.795999999999999916e-03 -9.625799999999999634e-02 -1.758178999999999936e+00 2.041989999999999916e-01 1.497384999999999966e+00 -7.806119999999999726e-01 2.053480000000000028e-01 -1.268229999999999913e-01 1.823617000000000044e+00 1.288000000000000082e-03 -9.737540000000000084e-01 -1.763290000000000135e-01 2.979669999999999819e-01 5.313849999999999962e-01 1.643330000000000068e-01 5.610099999999999809e-02 -8.831300000000000261e-02 1.271750000000000103e-01 -2.385319999999999940e-01 -5.837240000000000206e-01 1.615199999999999969e-01 5.391920000000000046e-01 -5.679800000000000126e-02 -3.048199999999999868e-02 -3.847019999999999884e-01 2.571200000000000152e-01 2.792660000000000142e-01 4.807440000000000047e-01 1.897459999999999980e-01
1.682099999999999984e-01 1.915000000000000036e-01 8.082270000000000287e-01 -1.777400000000000160e-02 2.010740000000000027e-01 -4.265039999999999942e-01 2.777419999999999889e-01 6.805100000000000038e-02 -1.475200000000000122e-01 -7.867690000000000516e-01 -9.360000000000000264e-03 2.141929999999999945e-01 -3.078899999999999970e-01 -4.468590000000000062e-01 5.099780000000000424e-01 6.231889999999999930e-01 9.004339999999999566e-01 -2.290000000000000098e-04 -1.546819999999999862e-01 4.614869999999999806e-01 -5.728149999999999631e-01 5.823199999999999904e-02 -2.905209999999999737e-01 -3.702409999999999868e-01 -1.997329999999999939e-01 -7.506500000000000672e-02 4.150059999999999860e-01 -3.344980000000000175e-01 -4.459259999999999891e-01 3.736380000000000257e-01 -1.042299999999999997e-02 -1.361429999999999862e-01 -1.388500000000000012e-01 9.848329999999999584e-01 -1.736499999999999988e-01 4.027510000000000256e-01 -1.144393999999999911e+00 -5.371270000000000211e-01 -1.983189999999999953e-01 3.577049999999999952e-01 2.938919999999999866e-01 -5.172520000000000451e-01 6.241800000000000126e-02 1.358610000000000095e-01 -1.417059999999999986e-01 4.238330000000000153e-01 -1.376499999999999946e-01 -2.103559999999999874e-01
-7.251900000000000013e-02 1.909500000000000086e-02 -1.578399999999999942e-02 -1.662299999999999889e-02 9.013999999999999443e-03 -2.651500000000000037e-02 -1.968439999999999912e-01 -3.147099999999999898e-02 -9.767749999999999488e-01 -1.373089999999999866e-01 3.301699999999999774e-02 1.012102000000000057e+00 -3.133999999999999980e-02 -1.901699999999999918e-02 7.962900000000000533e-02 1.330520000000000036e-01 -1.872300000000000006e-02 -1.025230000000000086e+00 -6.552399999999999891e-02 3.029000000000000095e-02 8.821000000000000715e-03 1.974259999999999904e-01 2.370099999999999985e-02 9.882170000000000121e-01 6.677500000000000102e-02 5.117000000000000021e-03 4.666000000000000009e-03 5.027600000000000124e-02 -1.485999999999999908e-03 -9.517799999999999871e-02 -1.114799999999999992e-02 -3.677999999999999846e-03 -1.565599999999999978e-02 5.022800000000000181e-02 -1.723999999999999838e-02 4.196000000000000077e-03 2.594199999999999978e-02 -1.683700000000000127e-02 3.812100000000000211e-02 -3.290599999999999775e-02 -1.060000000000000005e-02 -7.789999999999999702e-02 6.407000000000000368e-03 -6.782999999999999967e-03 2.714700000000000099e-02 3.410599999999999743e-02 5.602000000000000209e-03 7.013700000000000490e-02