6.693670303000000210e+00 0.000000000000000000e+00 0.000000000000000000e+00 -1.136814480000000044e-01 6.409686653999999706e+00 0.000000000000000000e+00 -1.700400679999999887e-01 -1.556110860000000096e-01 6.470793025999999948e+00
6.833216250000000436e+00 0.000000000000000000e+00 0.000000000000000000e+00 -1.160514160000000045e-01 6.543312266000000044e+00 0.000000000000000000e+00 -1.735849700000000051e-01 -1.588551800000000125e-01 6.605692549999999663e+00
