2.562380000000000102e+00 4.884820000000000384e+00 5.142509999999999692e+00 3.817359999999999864e+00 2.517160000000000064e+00 1.835790000000000033e+00 5.490429999999999922e+00 5.215609999999999857e+00 4.355150000000000077e+00 2.302299999999999902e-01 1.256580000000000030e+00 1.874570000000000070e+00 1.919440000000000035e+00 3.084740000000000038e+00 3.306119999999999948e+00 5.588989999999999903e+00 3.542600000000000193e+00 8.187100000000000488e-01 2.104530000000000012e+00 9.681400000000000006e-01 4.287919999999999732e+00 5.497600000000000264e-01 5.943699999999999761e+00 6.293149999999999800e+00 3.864500000000000157e-01 4.951279999999999681e+00 2.219949999999999868e+00 9.601600000000000135e-01 2.452570000000000139e+00 6.054459999999999731e+00 2.810000000000000053e+00 5.838999999999999746e-02 1.884339999999999904e+00 5.368850000000000122e+00 1.023050000000000015e+00 6.011260000000000048e+00 5.611729999999999663e+00 2.398699999999999832e+00 4.402300000000000324e+00 4.809230000000000338e+00 5.548969999999999736e+00 1.418819999999999970e+00 3.098539999999999850e+00 2.619660000000000100e+00 5.420200000000000351e+00 5.813189999999999635e+00 3.400269999999999904e+00 2.919470000000000010e+00
6.526320000000000121e+00 5.030199999999999783e+00 3.696099999999999941e-01 4.836520000000000152e+00 3.040109999999999868e+00 5.058609999999999829e+00 1.922300000000000120e-01 2.235199999999999854e+00 6.160389999999999588e+00 3.783319999999999794e+00 5.259909999999999641e+00 4.520769999999999733e+00 5.550760000000000360e+00 2.719009999999999927e+00 1.136980000000000102e+00 1.682420000000000027e+00 4.379710000000000214e+00 1.726879999999999971e+00 3.041760000000000019e+00 2.616200000000000081e+00 2.523060000000000080e+00 1.497849999999999904e+00 3.983950000000000102e+00 4.471300000000000274e+00 5.550200000000000244e+00 5.363039999999999807e+00 2.445990000000000109e+00 3.891150000000000109e+00 4.345760000000000289e+00 1.756839999999999957e+00 1.870859999999999967e+00 1.290499999999999980e+00 1.252999999999999892e+00 2.891090000000000160e+00 2.744969999999999910e+00 8.887000000000000455e-02 1.745149999999999979e+00 6.104350000000000165e+00 6.268309999999999604e+00 3.759349999999999969e+00 7.663299999999999557e-01 6.167899999999999494e-01 2.688289999999999846e+00 8.980000000000000482e-02 2.840209999999999901e+00 3.027089999999999836e+00 1.254769999999999941e+00 5.009949999999999903e+00
