-4.603667135999999971e+01
-4.626170934999999673e+01
