-1.081187502170896408e+01 2.975891991373848633e+00 -3.958172529056058764e+00 2.975891991373848633e+00 -1.250704993746202476e+00 -1.213907616825167324e+01 -3.958172529056058764e+00 -1.213907616825167324e+01 4.867633913811155288e+00
6.076074910829944997e+00 4.413558080634123471e+00 1.046315002443334530e+00 4.413558080634123471e+00 3.461874613033836923e+00 -1.828515592216057792e-02 1.046315002443334530e+00 -1.828515592216057792e-02 1.015739581924637591e-01
