2.181039999999999868e+00 4.129620000000000068e+00 9.616870000000000474e+00 2.207780000000000076e+00 2.030619999999999870e+00 7.825070000000000192e+00 1.933380000000000098e+00 1.516500000000000070e-01 2.003499999999999837e+00 1.882840000000000069e+00 2.274700000000000055e-01 5.973480000000000345e+00 2.118030000000000079e+00 2.139380000000000059e+00 4.111979999999999968e+00 3.973660000000000192e+00 3.027799999999999936e-01 7.759769999999999612e+00 2.007600000000000051e+00 1.809849999999999959e+00 2.223600000000000021e-01 1.728500000000000036e-01 2.210039999999999782e+00 9.738820000000000476e+00 3.878280000000000172e+00 1.862719999999999931e+00 1.857490000000000085e+00 3.914470000000000116e+00 3.104000000000000162e-02 2.058000000000000107e-02 1.834300000000000097e-01 1.686400000000000121e-01 3.936650000000000205e+00 1.198099999999999998e-01 2.002679999999999794e+00 5.845180000000000042e+00
2.063579999999999970e+00 2.348000000000000087e-01 9.813990000000000435e+00 2.090209999999999901e+00 2.120699999999999807e+00 7.835700000000000109e+00 2.050980000000000025e+00 3.965980000000000061e+00 1.962010000000000032e+00 2.126549999999999940e+00 4.053149999999999586e+00 5.857879999999999754e+00 2.020070000000000032e+00 2.058129999999999793e+00 3.904339999999999922e+00 4.074980000000000047e+00 4.110120000000000218e+00 7.896580000000000155e+00 1.990599999999999925e+00 2.004999999999999893e+00 6.406000000000000583e-02 1.644200000000000106e-01 2.212200000000000166e+00 9.764319999999999666e+00 8.419999999999999707e-02 1.994909999999999961e+00 1.975670000000000037e+00 2.515499999999999958e-01 4.638499999999999845e-01 2.094650999999999996e+01 8.494999999999999774e-02 1.118600000000000011e-01 3.924040000000000195e+00 4.012010000000000076e+00 2.085840000000000138e+00 5.917690000000000339e+00
4.051120000000000054e+00 3.546229999999999993e+00 1.703330000000000055e+01 3.742170000000000218e+00 3.606349999999999945e+00 3.669909999999999783e+00 2.015200000000000102e+00 2.085700000000000109e+00 7.337850000000000428e+00 3.548989999999999867e+00 1.568319999999999936e+00 1.654099999999999904e+00 2.177900000000000114e-01 1.855850000000000000e+00 5.320570000000000022e+00 2.281969999999999832e+00 1.721970000000000001e+00 1.703659999999999997e+01 5.677799999999999514e-01 1.817649999999999988e+00 9.907669999999999533e+00 1.773460000000000036e+00 3.418899999999999828e+00 1.706630000000000091e+00 1.899769999999999959e+00 1.778000000000000136e-01 5.700899999999999856e+00 2.161910000000000220e+00 2.704900000000000082e-01 9.164979999999999905e+00 1.979470000000000063e+00 1.993179999999999952e+00 3.622570000000000068e+00 3.808670000000000222e+00 3.716099999999999959e-01 7.389879999999999782e+00
4.101619999999999600e+00 3.471600000000000019e+00 1.706419999999999959e+01 3.735180000000000167e+00 3.606759999999999966e+00 3.590149999999999952e+00 2.007750000000000146e+00 2.145589999999999886e+00 7.371649999999999814e+00 3.553030000000000133e+00 1.604149999999999965e+00 1.602319999999999967e+00 1.877199999999999980e-01 1.913480000000000070e+00 5.407079999999999664e+00 2.265870000000000051e+00 1.668619999999999992e+00 1.700189999999999912e+01 5.792000000000000481e-01 1.820759999999999934e+00 9.921730000000000160e+00 1.820759999999999934e+00 3.373920000000000030e+00 1.734620000000000051e+00 1.959880000000000067e+00 1.764499999999999957e-01 5.648259999999999614e+00 2.160550000000000193e+00 2.580399999999999916e-01 9.190699999999999648e+00 1.964390000000000081e+00 2.063670000000000115e+00 3.637039999999999829e+00 3.712340000000000195e+00 3.310000000000000164e-01 7.375359999999999694e+00
3.531680000000000152e+00 1.881829999999999892e+00 9.104660000000000863e+00 1.658860000000000001e+00 3.595839999999999925e+00 2.049809999999999910e+00 1.783449999999999980e+00 1.827110000000000012e+00 7.386070000000000135e+00 1.761910000000000087e+00 1.106300000000000061e-01 9.207489999999999952e+00 1.910860000000000003e+00 1.766520000000000090e+00 3.937780000000000058e+00 1.840680000000000094e+00 3.610090000000000021e+00 5.597209999999999575e+00 -1.616000000000000075e-02 1.790580000000000060e+00 1.894879999999999898e+00 1.181200000000000028e-01 1.839669999999999916e+00 5.479729999999999990e+00 2.176499999999999879e+00 1.604179999999999939e+00 1.903703000000000145e+01 3.579429999999999890e+00 -8.959999999999999215e-03 7.512190000000000367e+00 3.440529999999999866e+00 3.645750000000000046e+00 3.836840000000000028e+00 3.008199999999999763e-01 3.222550000000000026e+00 1.861349999999999838e+01
5.286899999999999933e-01 3.413740000000000219e+00 1.708129999999999882e+01 3.687889999999999890e+00 4.503999999999999670e-02 3.511890000000000178e+00 1.983160000000000034e+00 2.172730000000000050e+00 7.433930000000000149e+00 3.581510000000000193e+00 1.630330000000000057e+00 1.588999999999999968e+00 3.772289999999999921e+00 1.985139999999999905e+00 5.516189999999999927e+00 2.242859999999999854e+00 1.617949999999999999e+00 1.697240000000000038e+01 5.559399999999999897e-01 1.859560000000000102e+00 9.885450000000000514e+00 1.862970000000000015e+00 3.369320000000000093e+00 1.726120000000000099e+00 2.014860000000000095e+00 1.826699999999999990e-01 5.547419999999999796e+00 2.167479999999999851e+00 2.164200000000000013e-01 9.228070000000000661e+00 1.936790000000000012e+00 2.040220000000000145e+00 3.676849999999999952e+00 3.666240000000000165e+00 2.828300000000000258e-01 7.376339999999999897e+00
3.481069999999999887e+00 1.828659999999999952e+00 9.064909999999999357e+00 1.619650000000000034e+00 3.554959999999999898e+00 2.089389999999999858e+00 1.750250000000000083e+00 1.951680000000000081e+00 7.386140000000000150e+00 1.786589999999999900e+00 -1.039999999999999909e-03 9.175990000000000535e+00 1.883890000000000065e+00 1.719640000000000057e+00 3.893170000000000019e+00 1.809500000000000108e+00 3.601080000000000059e+00 5.687319999999999709e+00 -2.000000000000000042e-02 1.726469999999999949e+00 1.881240000000000023e+00 5.600000000000000117e-02 1.856899999999999995e+00 5.493570000000000064e+00 2.185470000000000024e+00 1.701270000000000060e+00 1.903509999999999991e+01 3.614759999999999973e+00 -9.830000000000000196e-03 7.484619999999999607e+00 3.544420000000000126e+00 -3.454000000000000126e-02 3.883939999999999948e+00 4.525199999999999778e-01 3.293449999999999989e+00 1.858180000000000121e+01
2.071140000000000203e+00 2.342100000000000015e-01 9.742480000000000473e+00 2.140229999999999855e+00 2.122869999999999813e+00 7.856569999999999609e+00 1.965680000000000094e+00 8.616999999999999660e-02 1.965349999999999930e+00 2.057710000000000150e+00 4.058569999999999567e+00 5.847279999999999589e+00 2.075839999999999907e+00 2.077749999999999986e+00 3.881959999999999855e+00 1.777499999999999913e-01 4.096090000000000231e+00 7.898170000000000357e+00 2.207840000000000025e+00 2.459270000000000067e+00 2.092971000000000004e+01 1.656299999999999994e-01 2.125129999999999963e+00 9.837099999999999511e+00 1.149799999999999989e-01 2.072970000000000201e+00 1.973859999999999948e+00 9.898999999999999466e-02 3.940770000000000106e+00 5.929999999999999855e-02 4.012990000000000279e+00 4.012839999999999741e+00 3.987499999999999822e+00 4.002100000000000435e+00 2.086570000000000036e+00 5.883539999999999992e+00
2.062170000000000059e+00 2.540700000000000180e-01 9.624470000000000525e+00 2.181719999999999882e+00 2.105729999999999880e+00 7.858220000000000205e+00 1.942299999999999915e+00 1.297500000000000042e-01 1.957289999999999974e+00 2.012370000000000214e+00 4.035210000000000186e+00 5.804330000000000211e+00 2.095849999999999991e+00 2.087660000000000071e+00 3.849930000000000074e+00 2.001799999999999968e-01 4.070299999999999585e+00 7.938329999999999664e+00 1.956890000000000018e+00 2.064400000000000013e+00 1.525999999999999926e-02 1.843899999999999983e-01 2.068130000000000024e+00 9.797739999999999227e+00 1.657399999999999984e-01 2.122759999999999980e+00 1.980769999999999920e+00 1.204299999999999954e-01 3.929980000000000029e+00 1.659100000000000019e-01 3.969920000000000115e+00 3.991289999999999782e+00 4.039270000000000138e+00 3.971639999999999837e+00 2.077220000000000066e+00 5.880200000000000315e+00
2.170970000000000066e+00 4.148049999999999571e+00 9.740550000000000708e+00 2.155699999999999950e+00 2.079819999999999780e+00 7.839030000000000165e+00 1.961279999999999912e+00 1.022600000000000037e-01 1.987230000000000052e+00 1.949410000000000087e+00 1.819399999999999906e-01 5.937020000000000408e+00 2.085840000000000138e+00 2.103159999999999918e+00 4.020030000000000214e+00 3.992929999999999868e+00 2.406200000000000006e-01 7.802069999999999617e+00 2.009879999999999889e+00 1.889469999999999983e+00 9.070999999999999897e-02 1.588299999999999990e-01 2.197960000000000136e+00 9.807309999999999306e+00 3.935750000000000082e+00 1.935920000000000085e+00 1.909210000000000074e+00 4.152960000000000207e+00 4.547599999999999976e-01 2.093274999999999864e+01 1.175800000000000040e-01 1.271400000000000030e-01 3.931220000000000159e+00 1.093100000000000044e-01 2.042089999999999961e+00 5.865660000000000096e+00
4.011449999999999960e+00 3.616789999999999949e+00 1.700309999999999988e+01 3.755069999999999908e+00 3.646799999999999820e+00 3.727120000000000211e+00 2.022180000000000089e+00 2.019200000000000106e+00 7.340589999999999726e+00 3.566209999999999880e+00 1.553760000000000030e+00 1.728909999999999947e+00 2.199800000000000089e-01 1.823819999999999997e+00 5.286039999999999850e+00 2.276419999999999888e+00 1.783400000000000096e+00 1.707209999999999894e+01 5.224299999999999500e-01 1.850740000000000052e+00 9.841920000000000002e+00 1.731209999999999916e+00 3.479709999999999859e+00 1.666150000000000020e+00 1.873990000000000045e+00 1.684900000000000009e-01 5.689540000000000042e+00 2.176569999999999894e+00 2.465900000000000036e-01 9.145910000000000650e+00 1.978699999999999903e+00 1.855960000000000054e+00 3.614430000000000032e+00 2.917600000000000193e-01 3.887900000000000245e-01 7.429269999999999818e+00
3.867589999999999861e+00 1.894770000000000065e+00 6.005429999999999602e+00 1.768199999999999994e+00 2.021869999999999834e+00 4.001559999999999562e+00 2.028770000000000184e+00 2.230000000000000038e-02 2.045729999999999826e+00 -4.003000000000000308e-02 3.816479999999999873e+00 7.960589999999999833e+00 1.995999999999999996e+00 3.823729999999999851e+00 9.604839999999999378e+00 1.947380000000000111e+00 2.020360000000000156e+00 7.761210000000000164e+00 -1.598000000000000115e-02 3.784829999999999917e+00 3.943299999999999805e+00 9.790000000000000091e-03 1.026100000000000068e-01 5.349999999999999721e-03 1.846260000000000012e+00 3.721680000000000099e+00 5.859510000000000218e+00 3.870379999999999932e+00 1.916069999999999940e+00 9.847200000000000841e+00 2.026959999999999873e+00 1.808780000000000054e+00 1.192499999999999949e-01 1.410999999999999928e-02 1.979309999999999903e+00 2.055099999999999927e+00
