-3.931780863000000181e+01
-3.931804486000000054e+01
-4.095821559000000178e+01
-4.093836255000000079e+01
-4.104527482999999677e+01
-4.109182934999999759e+01
-4.101016066999999765e+01
-3.927977864999999724e+01
-3.944633841999999646e+01
-3.927767045000000223e+01
-4.100913723000000033e+01
-3.967972930999999903e+01
