-5.312904508999999820e+01
-5.098257874000000101e+01
-5.302373298999999918e+01
-5.106523349999999795e+01
-5.212171860000000123e+01
-5.179827559999999664e+01
-5.363371382999999781e+01
-5.343822400999999900e+01
-5.315433825000000212e+01
-5.195996075000000047e+01
-5.248457716000000062e+01
-5.209118764000000112e+01
-5.334962329999999753e+01
-5.257617427999999649e+01
-5.204752735000000285e+01
-5.359364346000000268e+01
-5.226818358999999958e+01
-5.366153392999999738e+01
-5.332419413000000219e+01
-5.284291830000000090e+01
-5.130196880999999820e+01
-5.243610601000000315e+01
-5.265311605000000128e+01
-5.220589818999999920e+01
-5.175503276999999969e+01
-5.099541234000000145e+01
-5.165965844000000118e+01
-5.290576588999999785e+01
-5.106621564000000291e+01
-5.311576073999999892e+01
-5.453086444000000199e+01
-5.121257136999999915e+01
-5.189748467999999804e+01
-5.255281404000000123e+01
-5.148182124000000215e+01
-5.177374981999999903e+01
-5.137702388000000298e+01
-5.338677595000000053e+01
-5.245110645999999832e+01
-5.266048081000000280e+01
-5.098599188000000026e+01
-5.063268605999999750e+01
-5.118145571000000160e+01
-5.209058180000000249e+01
-5.184436200999999755e+01
-5.177045719000000190e+01
-5.186883884000000222e+01
-5.206353262999999743e+01
-5.253726329999999933e+01
-5.168562674999999729e+01
-5.148559892000000104e+01
-5.246340276000000102e+01
-5.190390741000000219e+01
-5.223129251000000295e+01
-5.169291903999999960e+01
-5.146024443999999676e+01
-5.134999274999999841e+01
-5.228639463999999748e+01
-5.267246552000000293e+01
-5.126597845999999947e+01
-5.158766073000000318e+01
-5.306177907000000005e+01
-5.163243216000000047e+01
-5.144391691999999949e+01
-5.134930388000000079e+01
-5.212293907000000104e+01
-5.100335522999999682e+01
-5.139585615000000018e+01
-5.277412317999999658e+01
-5.277593104999999696e+01
-5.138738769999999789e+01
-5.353482326999999685e+01
-5.302949201999999929e+01
-5.330338945999999822e+01
-5.276493018000000035e+01
-5.223550851000000250e+01
-5.097692777000000319e+01
-5.237421133000000140e+01
-5.193833578000000273e+01
-5.225983052000000129e+01
-5.224563409999999664e+01
-5.283549378000000019e+01
-5.318415328999999758e+01
-5.336705322000000251e+01
-5.281936886999999814e+01
-5.141931598000000037e+01
-5.252973907999999881e+01
-5.341349212000000080e+01
-5.294197285999999991e+01
-5.275479021999999674e+01
-5.228349622000000352e+01
-5.373686261999999658e+01
-5.191632617999999866e+01
-5.415399525000000125e+01
-5.177955450999999698e+01
-5.183316682000000242e+01
-5.121888788999999775e+01
-5.278487492000000003e+01
-5.139726568999999756e+01
-5.085765408000000320e+01
