-1.048050463699999995e+02
-1.059322628900000041e+02
-1.073638061900000054e+02
-1.057790471099999934e+02
-1.038802921099999992e+02
-1.049047061800000051e+02
-1.039265386299999960e+02
-1.016756667500000049e+02
-1.018459608600000053e+02
-1.070119568700000059e+02
-1.033609775099999979e+02
-1.058301444100000026e+02
-1.038198199400000021e+02
-1.032108628499999980e+02
