-3.318524113000000142e+01
-3.609222837000000084e+01
-3.734041196999999812e+01
-3.406868247999999966e+01
-3.852947592999999671e+01
-3.953655450000000116e+01
-3.805973443999999972e+01
-3.403872386999999833e+01
-3.420642490000000180e+01
-3.865372047000000322e+01
-3.375932124999999928e+01
-3.793175766000000237e+01
-3.451897527999999937e+01
-4.004034512999999862e+01
-3.890258927000000000e+01
-3.411763738999999873e+01
-3.310817963000000219e+01
-3.466028226000000245e+01
-3.910147185000000292e+01
-3.272248926999999696e+01
-3.330987836999999985e+01
-3.907770404000000042e+01
-3.371933688000000018e+01
-3.344227672000000240e+01
-3.939907283000000149e+01
-3.605018967000000174e+01
-3.880275788000000148e+01
-3.631452817000000266e+01
-3.988095197999999897e+01
-3.879722716999999932e+01
-3.964611945000000048e+01
-3.607126398999999850e+01
-3.844335427000000038e+01
-3.452966768000000286e+01
-3.956288433000000282e+01
-3.905104067999999984e+01
-3.842570158000000191e+01
-3.946803751000000204e+01
-3.928563376999999690e+01
-3.907686068999999662e+01
-3.938176262000000349e+01
-3.866645324000000272e+01
-3.913203854000000348e+01
-3.913355087000000054e+01
-3.953033313000000248e+01
-3.967228690999999685e+01
-3.941394128999999680e+01
-3.496230041999999827e+01
-4.018182407999999839e+01
-3.903699441999999920e+01
-3.576188432000000006e+01
-3.933468781999999919e+01
-3.758457336000000026e+01
-3.749448263000000026e+01
-3.593689776000000080e+01
-3.865887943999999976e+01
-3.311918279000000354e+01
-3.334862923000000023e+01
-3.875007524000000103e+01
-3.527024218999999761e+01
-3.396853687000000122e+01
-3.244362609000000219e+01
-3.379203214000000344e+01
-3.574250733000000224e+01
-4.029213243000000233e+01
-3.381799079999999691e+01
