-9.630707965000000570e+01
-9.750663559000000191e+01
-1.058726017299999995e+02
