-5.831000000000000072e-02 9.213099999999999623e-01 9.783409999999999940e+00 2.946390000000000065e+00 8.192500000000000338e-01 1.022790000000000088e+00 7.199100000000000499e-01 1.907880000000000020e+00 1.631230000000000047e+01 2.719190000000000218e+00 3.020300000000000207e-01 4.804129999999999789e+00 1.305180000000000007e+00 1.045800000000000063e-01 6.950680000000000192e+00 2.067330000000000112e+00 2.170939999999999870e+00 9.320259999999999323e+00 3.440430000000000099e+00 1.613010000000000055e+00 7.365169999999999995e+00 9.226699999999999902e-01 2.424199999999999910e+00 2.575689999999999813e+00 4.926200000000000023e-01 -4.859000000000000125e-02 1.400370000000000026e+01 1.962550000000000017e+00 1.209799999999999986e+00 1.441119999999999912e+01 2.302929999999999922e+00 1.304329999999999989e+00 1.190230000000000032e+01 6.958100000000000396e-01 1.546019999999999950e+00 4.730080000000000062e+00
4.216490000000000293e+00 2.610110000000000152e+00 2.687899999999999956e+00 8.138499999999999623e-01 9.458999999999999353e-02 4.682400000000000340e+00 1.284070000000000045e+00 1.033719999999999972e+00 1.327270000000000039e+01 3.562759999999999927e+00 9.095800000000000551e-01 8.652469999999999217e+00 2.059999999999999887e-01 2.345579999999999998e+00 2.501200000000000090e-01 4.023179999999999978e+00 1.645739999999999981e+00 6.612650000000000361e+00 1.719940000000000024e+00 1.245200000000000085e+00 2.420630000000000059e+00 1.739149999999999974e+00 5.736499999999999932e-01 7.054789999999999672e+00 3.664579999999999949e+00 2.359199999999999964e+00 1.233239999999999981e+01 2.758570000000000189e+00 1.153520000000000101e+00 4.492160000000000153e+00 2.274239999999999817e+00 1.247940000000000049e+00 2.170730000000000004e+01 1.471079999999999943e+00 1.258029999999999982e+00 1.132010000000000005e+01
2.247479999999999922e+00 1.524429999999999952e+00 1.154509999999999970e+01 1.917799999999999949e+00 1.860770000000000035e+00 9.245839999999999392e+00 4.729499999999999815e-01 3.308400000000000230e-01 1.065399999999999991e+01 2.499229999999999841e+00 2.319920000000000204e+00 6.004999999999999921e-02 2.616940000000000044e+00 4.793399999999999883e-01 2.974530000000000118e+00 6.120799999999999574e-01 1.705670000000000019e+00 1.915610000000000035e+00 3.691300000000000026e+00 9.536999999999999644e-02 8.454250000000000043e+00 5.150700000000000278e-01 1.549180000000000001e+00 1.314690000000000047e+01 2.309900000000000009e-01 1.496729999999999894e+00 6.494130000000000180e+00 2.075699999999999878e+00 7.420999999999999819e-02 7.244880000000000209e+00 2.223339999999999872e+00 1.530640000000000001e+00 5.370099999999999874e+00 3.349500000000000255e-01 1.262000000000000066e-01 4.384140000000000370e+00
5.433200000000000252e-01 1.418179999999999996e+00 6.865719999999999601e+00 2.269629999999999814e+00 4.350200000000000178e-01 8.264210000000000278e+00 2.410350000000000215e+00 2.365299999999999958e+00 1.046630000000000038e+01 2.368900000000000006e+00 1.204469999999999930e+00 1.322330000000000005e+01 9.153999999999999915e-01 4.520799999999999819e-01 1.935249999999999915e+01 1.873510000000000009e+00 -1.055000000000000035e-02 2.265769999999999840e+00 8.286700000000000177e-01 2.144000000000000072e-02 4.589540000000000397e+00 3.488539999999999974e+00 1.756410000000000027e+00 4.615799999999999903e-01 2.975350000000000161e+00 1.041250000000000009e+00 4.229110000000000369e+00 2.640100000000000224e-01 2.140829999999999789e+00 1.209909999999999997e+01 4.166089999999999627e+00 1.488909999999999956e+00 9.144249999999999545e+00 3.960500000000000131e+00 1.467019999999999991e+00 2.709760000000000169e+00
2.061760000000000037e+00 1.576740000000000030e+00 2.140410000000000146e+00 3.056709999999999816e+00 3.139500000000000068e-01 1.256039999999999957e+01 3.409429999999999961e+00 1.761030000000000095e+00 2.164580000000000126e+01 1.841399999999999981e-01 1.111739999999999950e+00 3.646630000000000038e+00 5.589499999999999469e-01 4.799200000000000133e-01 7.423060000000000436e+00 2.592639999999999834e+00 1.830100000000000060e+00 7.200140000000000207e+00 1.073520000000000030e+00 2.222140000000000004e+00 1.056359999999999921e+01 1.237100000000000088e+00 2.135229999999999961e+00 5.290899999999999714e+00 1.260680000000000023e+00 3.076300000000000145e-01 2.168080000000000140e+01 4.121450000000000280e+00 2.485590000000000188e+00 1.568079999999999918e+00 2.994650000000000034e+00 9.184900000000000286e-01 9.488020000000000564e+00 8.869700000000000362e-01 1.855040000000000022e+00 1.245390000000000086e+01
5.312900000000000400e-01 4.105800000000000005e-01 9.827700000000000102e+00 2.486549999999999816e+00 2.266420000000000101e+00 1.125099999999999945e+01 2.785270000000000135e+00 1.253530000000000033e+00 1.320010000000000083e+01 3.401470000000000216e+00 1.432339999999999947e+00 1.996130000000000138e+01 2.226989999999999803e+00 3.254799999999999915e-01 1.545040000000000013e+01 2.664930000000000021e+00 6.600899999999999546e-01 8.467180000000000817e+00 3.133699999999999819e-01 1.485570000000000057e+00 1.531809999999999938e+01 3.946799999999999753e-01 1.756879999999999997e+00 7.781349999999999767e+00 1.717880000000000074e+00 6.845200000000000173e-01 8.589299999999999713e-01 1.358160000000000034e+00 3.595700000000000007e-01 1.962259999999999849e+01 6.379200000000000426e-01 4.094599999999999906e-01 1.289969999999999928e+01 1.418080000000000007e+00 1.883990000000000054e+00 1.766920000000000002e+01
2.026670000000000194e+00 2.254280000000000062e+00 1.084759999999999991e+01 6.113199999999999745e-01 1.135650000000000048e+00 9.157590000000000785e+00 2.353540000000000187e+00 1.169969999999999954e+00 4.392710000000000115e+00 2.268279999999999852e+00 1.057649999999999979e+00 2.083399999999999963e+01 4.311599999999999877e-01 1.036790000000000100e+00 1.632800000000000085e-01 1.671999999999999875e-01 1.674599999999999977e-01 1.427469999999999928e+01 2.119699999999999918e-01 1.584629999999999983e+00 1.178240000000000087e+01 8.484399999999999720e-01 1.723479999999999901e+00 1.883739999999999881e+01 3.447439999999999838e+00 3.607199999999999851e-01 5.848659999999999748e+00 1.315129999999999910e+00 1.649000000000000021e+00 6.603299999999999947e+00 3.096099999999999852e+00 4.623000000000000026e-02 1.885429999999999851e+01 2.802999999999999936e+00 1.292380000000000084e+00 1.328759999999999941e+01
3.784790000000000099e+00 6.527399999999999869e-01 6.280260000000000176e+00 1.676649999999999974e+00 1.540429999999999966e+00 7.294669999999999987e+00 -5.512000000000000233e-02 8.819500000000000117e-01 1.338509999999999955e+01 1.996369999999999978e+00 1.208159999999999901e+00 2.956699999999999884e-01 -2.468000000000000055e-02 2.055009999999999781e+00 4.069449999999999790e+00 2.027789999999999981e+00 4.017000000000000015e-01 1.221780000000000044e+01 1.008499999999999952e-01 2.674799999999999955e-01 1.094139999999999979e+01 1.786850000000000049e+00 7.020600000000000174e-01 5.144660000000000011e+00 3.779440000000000133e+00 2.197760000000000158e+00 8.523490000000000677e+00 1.002500000000000058e-01 9.105199999999999960e-01 1.672090000000000076e+00 2.032410000000000050e+00 9.589699999999999891e-01 9.532849999999999824e+00 1.933939999999999992e+00 2.005619999999999958e+00 2.380939999999999834e+00
4.423809999999999576e+00 7.466399999999999704e-01 1.706820000000000093e+01 3.638500000000000068e-01 2.128499999999999837e+00 6.334660000000000402e+00 2.855980000000000185e+00 1.847990000000000022e+00 1.273429999999999929e+01 1.923880000000000035e+00 2.446569999999999911e+00 1.723740000000000094e+01 3.641049999999999898e+00 2.580680000000000085e+00 3.102189999999999781e+00 1.159640000000000004e+00 1.658099999999999907e+00 1.069190000000000040e+01 3.354099999999999859e+00 5.001600000000000490e-01 1.014830000000000076e+01 2.577179999999999804e+00 6.593700000000000117e-01 6.629599999999999937e+00 1.767730000000000024e+00 1.477600000000000025e-01 4.069650000000000212e+00 3.849340000000000206e+00 1.341879999999999962e+00 4.802899999999999947e-01 1.500269999999999992e+00 1.681380000000000097e+00 8.500120000000000786e+00 6.984299999999999953e-01 4.056699999999999751e-01 1.276099999999999923e+01
6.065199999999999481e-01 1.894160000000000066e+00 1.473729999999999984e+00 3.333499999999999797e-01 7.291999999999999871e-02 5.945149999999999935e+00 3.843599999999999905e+00 2.022159999999999958e+00 3.927999999999999936e+00 7.949699999999999545e-01 4.951099999999999945e-01 1.627890000000000015e+01 1.756340000000000012e+00 1.452290000000000081e+00 1.386170000000000080e+01 2.746150000000000091e+00 1.741219999999999990e+00 1.614369999999999905e+01 3.861619999999999830e+00 2.607979999999999965e+00 1.388659999999999961e+01 2.936280000000000001e+00 4.200999999999999734e-01 1.885520000000000085e+00 2.105410000000000004e+00 6.843399999999999483e-01 7.526049999999999685e+00 1.600950000000000095e+00 1.541560000000000041e+00 1.008859999999999957e+01 4.072510000000000296e+00 2.527320000000000011e+00 8.912150000000000460e+00 1.695400000000000018e+00 8.203599999999999781e-01 4.208169999999999966e+00
1.429689999999999905e+00 2.133939999999999948e+00 1.335940000000000083e+01 2.914480000000000182e+00 1.430090000000000083e+00 3.548859999999999904e+00 1.119040000000000035e+00 1.790980000000000016e+00 1.134639999999999915e+01 1.218180000000000041e+00 4.130699999999999927e-01 4.233679999999999666e+00 2.391669999999999963e+00 3.746300000000000185e-01 1.973789999999999978e+01 4.326469999999999594e+00 1.758739999999999970e+00 6.406740000000000101e+00 1.405869999999999953e+00 1.875050000000000106e+00 2.901400000000000090e-01 3.571099999999999941e+00 1.807579999999999965e+00 1.378370000000000095e+00 4.697919999999999874e+00 9.124700000000000033e-01 2.087030000000000030e+01 3.524739999999999984e+00 1.241810000000000080e+00 1.392290000000000028e+01 2.531359999999999832e+00 2.195199999999999929e-01 6.126820000000000377e+00 3.159980000000000011e+00 3.539100000000000024e-01 1.141489999999999938e+01
1.452180000000000026e+00 1.193289999999999962e+00 1.201549999999999940e+01 2.558730000000000171e+00 2.500199999999999978e+00 9.420469999999999899e+00 3.451140000000000096e+00 1.254300000000000137e-01 1.168520000000000003e+01 2.157620000000000093e+00 7.748500000000000387e-01 4.437099999999999933e-01 5.660500000000000531e-01 2.547180000000000000e+00 6.191699999999999982e+00 2.359170000000000211e+00 1.568480000000000096e+00 2.772359999999999935e+00 3.933200000000000029e-01 2.515379999999999949e+00 8.337680000000000646e+00 3.198170000000000179e+00 7.182800000000000296e-01 4.805850000000000399e+00 4.307409999999999961e+00 2.078840000000000021e+00 8.125499999999999945e-01 8.527500000000000080e-01 1.416490000000000027e+00 1.017919999999999980e+01 2.601370000000000182e+00 1.925270000000000037e+00 7.097260000000000346e+00 6.461000000000000076e-02 5.388699999999999601e-01 3.217839999999999812e+00
6.716900000000000093e-01 1.190220000000000056e+00 1.655000000000000071e+01 2.920679999999999943e+00 1.110399999999999998e-01 5.457930000000000170e+00 3.331350000000000033e+00 2.204600000000000115e+00 1.484140000000000015e+01 8.422800000000000287e-01 8.704000000000000625e-02 7.205219999999999736e+00 8.134599999999999609e-01 1.206700000000000106e+00 3.921530000000000182e+00 2.989939999999999820e+00 2.660219999999999807e+00 1.672060000000000102e+01 3.070549999999999891e+00 1.145729999999999915e+00 7.851490000000000080e+00 1.309549999999999992e+00 2.458499999999999908e+00 1.056599999999999984e+00 1.117990000000000039e+00 2.739199999999999968e-01 1.435769999999999946e+01 9.162400000000000544e-01 1.757900000000000018e+00 9.507120000000000459e+00 3.038009999999999877e+00 2.727710000000000079e+00 3.150900000000000034e+00 3.103000000000000203e+00 1.089290000000000092e+00 1.077769999999999939e+01
5.745400000000000507e-01 1.040459999999999940e+00 1.042309999999999981e+01 1.885850000000000026e+00 6.301700000000000079e-01 1.477330000000000076e+01 2.432850000000000179e+00 2.248190000000000133e+00 1.166009999999999991e+01 4.221099999999999852e-01 9.137999999999999456e-01 1.830750000000000099e+01 2.523089999999999833e+00 2.233589999999999964e+00 1.696689999999999898e+01 2.163759999999999906e+00 1.765090000000000048e+00 1.948829999999999885e+01 4.020599999999999952e+00 1.795409999999999950e+00 1.601879999999999882e+01 3.440290000000000070e+00 5.907200000000000228e-01 2.997689999999999966e+00 2.008399999999999908e-01 2.060579999999999856e+00 1.285309999999999953e+01 2.433349999999999902e+00 2.112659999999999982e+00 9.498639999999999972e+00 3.811729999999999841e+00 9.652100000000000124e-01 2.087089999999999890e+01 1.687389999999999946e+00 3.822599999999999887e-01 4.709099999999999953e-01
1.579220000000000068e+00 1.912390000000000034e+00 9.383350000000000080e+00 -2.137999999999999901e-01 2.176759999999999806e+00 1.129279999999999973e+01 1.309919999999999973e+00 1.029369999999999896e+00 4.994469999999999743e+00 3.684429999999999872e+00 1.422000000000000000e-02 5.549009999999999998e+00 2.013440000000000119e+00 6.566100000000000270e-01 1.120730000000000004e+01 6.058099999999999596e-01 2.591279999999999806e+00 2.937650000000000095e+00 1.822049999999999947e+00 1.569299999999999862e-01 7.040670000000000428e+00 4.138760000000000439e+00 2.059070000000000178e+00 7.762340000000000018e+00 3.624969999999999803e+00 7.717800000000000216e-01 9.419999999999999929e+00 2.104039999999999910e+00 1.667700000000000016e-01 1.666609999999999925e+00 3.726999999999999758e-02 4.000000000000000192e-04 6.996499999999999941e-01 3.387230000000000185e+00 1.142630000000000035e+00 3.628589999999999982e+00
2.087380000000000013e+00 1.205920000000000103e+00 4.979169999999999874e+00 4.032980000000000231e+00 1.931030000000000024e+00 1.227170000000000094e+00 2.120019999999999794e+00 3.862400000000000277e-01 2.459239999999999871e+00 1.862880000000000091e+00 1.123180000000000067e+00 7.473790000000000155e+00 3.610170000000000101e+00 8.700299999999999701e-01 1.107109999999999950e+01 -2.858899999999999775e-01 9.279399999999999871e-01 1.374690000000000012e+01 1.609180000000000055e+00 1.994240000000000013e+00 9.784509999999999152e+00 1.751130000000000075e+00 3.482999999999999985e-02 1.226939999999999920e+01 -3.896999999999999770e-02 2.322000000000000064e+00 6.603040000000000020e+00 -1.088000000000000078e-02 2.158420000000000005e+00 4.298210000000000086e+00 3.685189999999999966e+00 2.347840000000000149e+00 8.448600000000000776e+00 1.830009999999999915e+00 1.406209999999999960e+00 1.494849999999999923e+01
2.786399999999999988e-01 1.523330000000000073e+00 8.883799999999999475e-01 5.015500000000000513e-01 2.146170000000000133e+00 6.404609999999999914e+00 2.692140000000000200e+00 1.495309999999999917e+00 5.844159999999999577e+00 2.378359999999999808e+00 2.508160000000000167e+00 1.611110000000000042e+01 2.499639999999999862e+00 8.751499999999999835e-01 1.347409999999999997e+01 1.922899999999999887e-01 6.308599999999999763e-01 1.469510000000000005e+01 5.554499999999999993e-01 2.587200000000000166e+00 1.202250000000000085e+01 1.992599999999999927e+00 2.171710000000000029e+00 2.483999999999999986e+00 4.609099999999999864e-01 1.549630000000000063e+00 9.793549999999999756e+00 3.601980000000000182e+00 1.391999999999999904e-01 8.212630000000000763e+00 2.947659999999999947e+00 1.143310000000000048e+00 1.045570000000000022e+01 3.999080000000000190e+00 2.065030000000000143e+00 3.752190000000000136e+00
4.380550000000000388e+00 8.571299999999999475e-01 1.695830000000000126e+01 2.536300000000000221e-01 2.152839999999999865e+00 6.265469999999999651e+00 2.922899999999999832e+00 1.912409999999999943e+00 1.272310000000000052e+01 2.003400000000000070e+00 2.505830000000000002e+00 1.717930000000000135e+01 3.581580000000000208e+00 2.438849999999999962e+00 3.062879999999999825e+00 1.076589999999999936e+00 1.696379999999999999e+00 1.073629999999999995e+01 3.421990000000000087e+00 2.514000000000000123e-01 1.029250000000000043e+01 2.510009999999999852e+00 7.228499999999999925e-01 6.693780000000000285e+00 1.636710000000000109e+00 1.655899999999999872e-01 4.135550000000000281e+00 3.910719999999999974e+00 1.285670000000000091e+00 4.512399999999999745e-01 1.630509999999999904e+00 1.586850000000000094e+00 8.449379999999999669e+00 7.866699999999999804e-01 5.688999999999999613e-01 1.280979999999999919e+01
5.499000000000000554e-01 1.987079999999999957e+00 7.843239999999999768e+00 2.713509999999999867e+00 2.645059999999999967e+00 1.284210000000000029e+01 2.487049999999999983e+00 3.333900000000000197e-01 8.353619999999999379e+00 2.786109999999999864e+00 1.765200000000000102e+00 6.436910000000000132e+00 3.161200000000000121e-01 1.221799999999999997e+00 3.044290000000000163e+00 6.451099999999999612e-01 8.487900000000000444e-01 1.312780000000000058e+01 2.793960000000000221e+00 1.142640000000000100e+00 1.034839999999999982e+01 3.406909999999999883e+00 7.924000000000000488e-02 1.107460000000000111e+00 7.217599999999999572e-01 1.962399999999999922e+00 1.073900000000000077e+01 2.724079999999999835e+00 2.212380000000000013e+00 3.674879999999999924e+00 1.505989999999999940e+00 9.538799999999999502e-01 1.704399999999999915e+00 8.467000000000000082e-01 8.288799999999999502e-01 5.611290000000000333e+00
1.436960000000000015e+00 7.006499999999999950e-01 1.686070000000000135e+01 1.878789999999999960e+00 1.621680000000000010e+00 1.215279999999999916e+01 1.281730000000000036e+00 1.267789999999999973e+00 1.105339999999999989e+00 3.716819999999999791e+00 9.606799999999999784e-01 1.498300000000000054e+01 4.154110000000000191e+00 2.562559999999999949e+00 8.349339999999999762e+00 3.269839999999999858e+00 1.436300000000000077e-01 1.736059999999999937e+00 4.088009999999999700e+00 5.590199999999999614e-01 1.329609999999999914e+01 1.800659999999999927e+00 2.300809999999999800e+00 9.710810000000000386e+00 1.779789999999999983e+00 1.422309999999999963e+00 7.155499999999999972e+00 3.876990000000000158e+00 1.022350000000000092e+00 1.078090000000000082e+01 1.716450000000000031e+00 2.287230000000000096e+00 1.429630000000000045e+01 3.696660000000000057e+00 2.017059999999999853e+00 1.802359999999999829e+01
8.420199999999999907e-01 2.546900000000000275e-01 1.429330000000000034e+01 2.161989999999999856e+00 8.895600000000000174e-01 3.559099999999999930e+00 3.343830000000000080e+00 2.143299999999999927e-01 5.259809999999999874e+00 7.810599999999999765e-01 2.907799999999999829e-01 1.231639999999999979e+01 1.175199999999999995e-01 5.542000000000000259e-01 2.303539999999999921e+00 1.299239999999999950e+00 1.397769999999999957e+00 6.204439999999999955e+00 8.253099999999999881e-01 1.415389999999999926e+00 2.029629999999999868e+01 3.152449999999999974e+00 1.495789999999999953e+00 1.540879999999999939e+01 2.294620000000000104e+00 2.143700000000000050e-01 1.886850000000000094e+01 3.015779999999999905e+00 4.918699999999999739e-01 2.112709999999999866e+01 2.873489999999999878e+00 1.236399999999999944e+00 1.284290000000000020e+01 2.422470000000000123e+00 1.774049999999999905e+00 1.272629999999999928e+00
2.973869999999999791e+00 1.605790000000000051e+00 1.135440000000000005e+01 3.789779999999999927e+00 2.505910000000000082e+00 4.668569999999999887e+00 5.555999999999999828e-01 6.122199999999999864e-01 9.776980000000000004e+00 3.753260000000000041e+00 5.090999999999999970e-01 7.488529999999999909e+00 4.377819999999999823e+00 1.515060000000000073e+00 2.463630000000000209e+00 4.426980000000000359e+00 2.464459999999999873e+00 4.842600000000000238e-01 1.531730000000000036e+00 2.050809999999999800e+00 6.951909999999999812e+00 2.349969999999999892e+00 2.519179999999999975e+00 2.729480000000000128e+00 5.200700000000000323e-01 2.299799999999999900e-01 1.180990000000000073e+01 2.774099999999999788e+00 2.081150000000000055e+00 9.445790000000000575e+00 2.158659999999999801e+00 1.018869999999999942e+00 6.589199999999999502e-01 1.214059999999999917e+00 8.852799999999999558e-01 4.856849999999999667e+00
2.454429999999999890e+00 7.338000000000000078e-02 1.444589999999999996e+01 -3.604999999999999871e-02 1.784410000000000052e+00 1.187820000000000098e+00 2.592499999999999805e-01 1.156639999999999890e+00 1.303059999999999974e+01 3.832400000000000251e-01 5.813199999999999479e-01 7.200109999999999566e+00 2.122100000000000097e-01 -1.072199999999999959e-01 1.591130000000000067e+01 -3.609399999999999831e-01 1.095120000000000093e+00 1.829570000000000007e+01 1.783749999999999947e+00 4.096699999999999786e-01 1.706279999999999930e+01 3.329209999999999781e+00 7.123500000000000387e-01 5.073760000000000048e+00 1.608579999999999899e+00 6.942899999999999627e-01 2.547719999999999985e+00 -5.165000000000000147e-02 4.602999999999999869e-01 9.099750000000000227e+00 1.590149999999999952e+00 2.225940000000000030e+00 1.948969999999999914e+01 2.657049999999999912e+00 1.902300000000000102e+00 7.197860000000000369e+00
