5.771060000000000079e-01 -2.160499999999999921e-02 3.551239999999999952e-01 6.770500000000000129e-02 8.013499999999999790e-02 -4.206200000000000216e-02 -2.696549999999999780e-01 9.050600000000000311e-02 1.464625999999999983e+00 8.576249999999999707e-01 8.031499999999999750e-02 -2.779200000000000073e-02 8.708650000000000002e-01 1.001657000000000020e+00 -1.610709999999999920e-01 -7.216280000000000472e-01 3.767600000000000116e-02 4.188549999999999773e-01 -7.596519999999999939e-01 -8.919580000000000286e-01 -1.356279999999999986e-01 -3.017999999999999849e-03 2.414679999999999882e-01 -9.595770000000000133e-01 -8.443414000000000641e+00 8.857099999999999695e-02 -2.908666999999999891e+00 8.750624999999999432e+00 -1.637990000000000002e-01 1.807220999999999966e+00 -2.079900000000000151e-02 -9.147000000000000616e-03 -3.034229999999999983e-01 -9.057579999999999520e-01 -5.338199999999999612e-01 4.923939999999999984e-01
-2.017821000000000087e+00 -1.240499999999999936e-01 -8.005489999999999551e-01 -1.266472000000000042e+00 -4.484819999999999918e-01 1.059067999999999898e+00 -3.264199999999999879e-01 -6.702599999999999669e-01 4.278655999999999793e+00 -9.947499999999999398e-02 -5.150679999999999703e-01 1.424692999999999987e+00 -1.343383999999999912e+00 7.099199999999999955e-02 2.806910000000000238e-01 2.371099999999999944e-02 9.313489999999999824e-01 -1.041976999999999931e+00 8.081970000000000542e-01 1.302119999999999944e-01 -8.911419999999999897e-01 1.516170000000000018e-01 -3.941390000000000171e-01 -1.713220000000000021e-01 -1.776570000000000094e-01 1.129750000000000060e-01 -1.448969999999999980e-01 2.145192000000000210e+00 5.299859999999999571e-01 6.500829999999999664e-01 1.557919999999999972e+00 -1.818390000000000006e-01 1.249730000000000008e-01 5.445929999999999938e-01 5.583240000000000425e-01 -4.768277000000000321e+00
1.903515999999999986e+00 -1.686500000000000152e-02 1.275365000000000082e+00 -2.300069999999999837e+00 -2.963432000000000066e+00 2.902753999999999834e+00 -2.113573999999999842e+00 4.739309999999999912e-01 1.496151000000000009e+00 -3.307199999999999723e-02 6.091579999999999773e-01 6.430160000000000320e-01 -1.465853000000000073e+00 3.113710000000000089e-01 -1.107836000000000043e+00 1.186300000000000028e-02 -1.164550000000000030e-01 -5.451979999999999604e-01 6.309641000000000055e+00 1.888878000000000057e+00 1.629305999999999921e+00 -5.809290000000000287e-01 -4.937710000000000155e-01 9.795299999999999840e-02 -8.724269999999999525e-01 -1.263741999999999921e+00 -1.397579999999999933e-01 -2.293248999999999871e+00 2.407029999999999781e+00 -1.899855000000000071e+00 3.233190000000000230e-01 -9.959820000000000340e-01 -3.960059999999999913e+00 1.110835999999999935e+00 1.598799999999999943e-01 -3.918389999999999929e-01
-9.496100000000000374e-02 1.710699999999999998e-01 -6.752430000000000376e-01 -6.727309999999999679e-01 -2.295439999999999980e-01 -7.982010000000000494e-01 -4.351459999999999773e-01 -1.559100000000000069e-02 1.462919999999999998e+00 7.333800000000000041e-02 -1.805460000000000120e-01 -1.165075000000000083e+00 6.215669999999999806e-01 -4.260869999999999935e-01 6.566840000000000455e-01 -7.801719999999999766e-01 2.935729999999999729e-01 -6.239350000000000174e-01 -4.013860000000000205e-01 -3.333149999999999724e-01 3.265819999999999834e-01 -7.183150000000000368e-01 4.864180000000000170e-01 -7.463710000000000067e-01 -4.369199000000000055e+00 -1.561126999999999931e+00 7.720464999999999911e+00 -1.338820000000000010e-01 1.537280000000000035e-01 -1.038410000000000027e-01 1.271209999999999951e+00 3.872899999999999954e-02 5.098350000000000382e-01 5.639675999999999689e+00 1.602692000000000005e+00 -6.563820999999999906e+00
8.407599999999999796e-02 -6.358249999999999735e-01 1.733780000000000043e-01 -1.692150000000000043e-01 5.617159999999999931e-01 -6.391170000000000462e-01 -9.704580000000000428e-01 -5.242409999999999570e-01 3.131869999999999932e-01 -9.863450000000000273e-01 -8.452349999999999586e-01 -7.859190000000000342e-01 -1.496899999999999897e-01 2.047980000000000078e-01 4.210389999999999966e-01 4.572979999999999823e-01 -3.789800000000000113e-02 4.289029999999999787e-01 2.734280000000000044e-01 1.284928999999999988e+00 -5.940288999999999930e+00 3.778819999999999957e-01 7.786450000000000315e-01 6.426570000000000338e-01 1.121402000000000010e+00 8.610879999999999646e-01 -3.545289999999999830e-01 -1.302099999999999959e-02 3.540470000000000006e-01 4.087999999999999620e-03 4.129920000000000258e-01 -1.281480000000000119e-01 -7.644800000000000206e-02 -4.383480000000000154e-01 -1.873877000000000015e+00 5.813049000000000355e+00
1.700339999999999907e-01 1.557129999999999903e-01 9.877439999999999554e-01 -1.143419999999999992e-01 4.066219999999999835e-01 -1.689027000000000056e+00 -6.012079999999999647e-01 6.796710000000000251e-01 1.903307000000000082e+00 1.824520000000000031e-01 6.529249999999999776e-01 3.284679999999999822e-01 1.564003000000000032e+00 -4.604610000000000092e-01 2.925519999999999787e-01 -1.185322999999999904e+00 -4.256499999999999728e-01 3.782989999999999964e-01 -1.654619000000000062e+00 4.220650000000000235e-01 -2.547820000000000085e-01 9.581429999999999669e-01 4.550080000000000235e-01 -4.433929999999999816e-01 -6.068780000000000285e-01 -1.169329999999999953e-01 3.247713000000000072e+00 2.920380000000000198e-01 5.688900000000000207e-02 -2.715451999999999977e+00 8.616559999999999775e-01 -1.146077999999999930e+00 -5.119690000000000074e-01 1.340439999999999965e-01 -6.797720000000000429e-01 -1.523458999999999897e+00
2.092439999999999856e+00 1.070685000000000109e+00 -6.733109999999999928e-01 4.506199999999999789e-02 -2.060760000000000092e-01 -1.049540000000000056e-01 -2.653353000000000073e+00 1.717897999999999925e+00 -3.171434000000000086e+00 6.305119999999999614e-01 7.487390000000000434e-01 -3.410790000000000211e-01 -8.020000000000000462e-01 -5.940569999999999462e-01 3.047730000000000161e-01 2.010425000000000129e+00 -4.423480000000000190e-01 4.441470000000000140e-01 -8.862119999999999997e-01 -6.513499999999999845e-01 6.047000000000000292e-02 1.030205999999999955e+00 -9.764669999999999739e-01 3.079990000000000228e-01 2.799879999999999924e+00 -1.780396000000000090e+00 3.606564000000000103e+00 -2.443440000000000056e-01 1.153730000000000033e-01 2.901529999999999943e-01 -8.551410000000000400e-01 8.222720000000000029e-01 -2.525600000000000067e-01 -3.167475000000000041e+00 1.757279999999999953e-01 -4.707689999999999930e-01
-4.389410000000000256e-01 -2.234130000000000005e-01 4.084679999999999978e-01 8.328379999999999672e-01 7.981810000000000294e-01 2.289309999999999956e-01 -1.291260000000000074e+00 -1.306578999999999935e+00 -4.598428000000000182e+00 1.985041000000000055e+00 1.922614000000000045e+00 2.854190000000000005e+00 -8.718179999999999819e-01 -2.843720000000000137e-01 -6.928100000000000369e-01 2.776359999999999939e-01 -1.369815999999999923e+00 -3.662316999999999823e+00 -6.581709999999999505e-01 -3.658830000000000138e-01 -6.041440000000000143e-01 7.491229999999999833e-01 -1.381060000000000065e-01 -1.868197000000000108e+00 6.515530000000000488e-01 1.478170000000000039e-01 2.308040000000000092e-01 -1.799231000000000025e+00 -2.073800000000000088e-01 4.015873000000000026e+00 -7.914849999999999941e-01 -8.479499999999999538e-02 1.328000999999999987e+00 1.354716000000000031e+00 1.111731000000000025e+00 2.359628999999999976e+00
-6.870330000000000048e-01 -4.609790000000000276e-01 -2.697524000000000033e+00 -2.425660000000000038e-01 -1.512969999999999871e-01 -3.076099999999999945e-01 1.956199999999999883e-01 -1.546510000000000107e-01 -5.349669999999999703e-01 1.201168999999999931e+00 -6.600179999999999936e-01 4.688689999999999802e-01 1.669500999999999902e+00 -2.971400000000000152e-01 -9.832699999999999774e-01 -3.328909999999999925e-01 2.559790000000000121e-01 1.245514999999999928e+00 8.132599999999999552e-02 -1.909720000000000029e-01 8.320199999999999818e-02 3.895600000000000174e-01 -6.197400000000000131e-02 -5.449659999999999505e-01 -1.627161999999999997e+00 3.399499999999999744e-01 1.058006999999999920e+00 -5.725839999999999819e-01 1.100173999999999985e+00 2.980242000000000058e+00 2.010520000000000085e-01 2.332210000000000116e-01 -7.936929999999999819e-01 -2.759929999999999883e-01 4.770699999999999941e-02 2.619600000000000053e-02
1.818678999999999935e+00 -3.811583999999999861e+00 8.265313000000000798e+00 -2.843490000000000184e-01 3.302000000000000074e-02 2.081900000000000084e+00 -7.771599999999999620e-01 -5.683310000000000306e-01 -1.241977000000000109e+00 -1.362160000000000037e+00 3.108861000000000097e+00 -8.570230000000000459e+00 -8.154699999999999449e-02 -3.647039999999999726e-01 1.673799999999999941e-02 1.360876999999999892e+00 2.415069999999999995e-01 -4.725349999999999828e-01 -9.597799999999999387e-02 3.597850000000000215e-01 2.545169999999999932e-01 -1.732752999999999988e+00 6.341660000000000075e-01 5.651289999999999925e-01 1.214579999999999965e-01 3.591250000000000275e-01 4.022540000000000004e-01 7.679259999999999975e-01 -3.454479999999999773e-01 -2.953029999999999822e-01 -5.749469999999999859e-01 1.959509999999999863e-01 -5.763979999999999659e-01 8.399529999999999497e-01 1.576519999999999866e-01 -4.294089999999999852e-01
5.018719999999999848e-01 1.357582000000000066e+00 2.833959000000000117e+00 2.853527000000000147e+00 8.650309999999999944e-01 -2.279690000000000050e-01 -1.138989999999999947e+00 -1.246472000000000024e+00 -3.155924999999999869e+00 -3.756124999999999936e+00 -9.698170000000000401e-01 4.592640000000000056e-01 1.017768999999999924e+00 -2.652570000000000205e-01 -3.877079999999999971e-01 3.559699000000000169e+00 -1.468115000000000059e+00 7.281200000000000172e-02 2.453748000000000040e+00 -3.286029999999999784e-01 1.042661000000000060e+00 -1.987450000000000050e-01 2.089390000000000136e-01 5.249600000000000100e-02 -2.982317999999999802e+00 6.396669999999999856e-01 -8.870200000000000307e-01 5.470400000000000262e-02 -6.421249999999999458e-01 -1.769969999999999877e-01 -2.946750999999999898e+00 1.318149000000000015e+00 -9.789499999999999591e-02 5.816109999999999891e-01 5.310219999999999940e-01 4.723220000000000196e-01
8.508099999999999552e-01 -2.283689999999999887e-01 5.369094999999999729e+00 2.390190000000000037e+00 1.059989000000000070e+00 -4.526209999999999956e-01 1.308972999999999942e+00 -4.632649999999999824e-01 -1.896710000000000063e-01 -3.115140000000000131e-01 -2.589449999999999807e-01 4.157930000000000237e-01 -5.872439999999999882e-01 2.447499999999999953e-01 -2.686094999999999899e+00 -1.756159999999999943e-01 8.374669999999999614e-01 -4.903179999999999761e-01 -1.062343999999999955e+00 8.929909999999999792e-01 7.339299999999999990e-02 -1.622244000000000019e+00 -1.705999999999999878e-02 2.342325999999999908e+00 2.819760000000000044e-01 -5.457000000000000045e-03 4.701540000000000163e-01 -3.731273999999999980e+00 -9.916679999999999939e-01 -2.798251000000000044e+00 1.010850999999999944e+00 -6.031060000000000310e-01 -2.637869999999999937e-01 1.647435999999999900e+00 -4.673280000000000212e-01 -1.790018000000000109e+00
-7.896300000000000541e-02 3.378610000000000224e-01 -1.665830000000000088e-01 3.958199999999999913e-02 -4.354000000000000231e-02 8.766509999999999581e-01 1.510647999999999991e+00 -1.943424000000000040e+00 -4.973554000000000030e+00 -4.877800000000000191e-02 -9.692099999999999327e-02 -1.126510000000000011e-01 -5.138899999999999718e-02 1.271370000000000000e-01 -8.036999999999999700e-02 -4.650980000000000114e-01 1.413607999999999976e+00 4.469764999999999766e+00 4.695699999999999874e-02 3.248780000000000001e-01 1.369019999999999959e-01 -5.719699999999999784e-01 -1.107080000000000009e-01 1.461907000000000068e+00 -3.443430000000000102e-01 2.800179999999999891e-01 -6.829799999999999760e-02 -8.872499999999999831e-02 -1.075199999999999941e-02 -1.519040000000000112e-01 1.878000000000000155e-02 -1.555829999999999991e-01 -6.544980000000000242e-01 3.329900000000000221e-02 -1.225740000000000024e-01 -7.373669999999999947e-01
-1.125637999999999916e+00 -3.947559999999999958e-01 3.987299999999999733e-01 2.466780000000000084e-01 1.662480000000000069e-01 -8.616949999999999887e-01 -1.607385999999999981e+00 5.001290000000000457e-01 8.435070000000000068e-01 -8.597780000000000422e-01 -6.302969999999999962e-01 -3.384340000000000126e-01 -9.002143000000000228e+00 2.442048000000000219e+00 5.855776999999999788e+00 8.661299999999999555e-02 9.625850000000000239e-01 4.376929999999999987e-01 8.549398999999999305e+00 -2.425266999999999840e+00 -5.967912000000000106e+00 -7.171199999999999797e-02 3.440000000000000132e-04 -7.578070000000000084e-01 2.019004999999999939e+00 -3.189899999999999958e-01 1.841876999999999986e+00 7.208120000000000083e-01 1.703810000000000047e-01 -2.013326000000000171e+00 1.542599000000000053e+00 -4.928219999999999823e-01 -2.169770000000000032e-01 -4.984500000000000042e-01 2.039699999999999847e-02 7.785659999999999803e-01
-8.608179999999999721e-01 6.691049999999999498e-01 -1.241381000000000068e+00 1.156429999999999958e-01 -1.836129999999999984e-01 4.006299999999999861e-01 2.197050000000000114e-01 1.184647000000000006e+00 -6.437030000000000252e-01 -1.360800000000000030e-02 -8.775370000000000115e-01 5.477199999999999847e-01 1.828799999999999870e-02 -2.649460000000000148e-01 1.549112999999999962e+00 -2.447722999999999871e+00 -1.467297999999999991e+00 3.658952999999999900e+00 3.955609999999999959e-01 1.692730000000000068e-01 1.128114999999999979e+00 -8.928200000000000025e-02 -6.474699999999999900e-02 -2.086672999999999778e+00 2.327859999999999929e-01 -1.132249999999999979e+00 1.353059999999999929e+00 5.137271000000000143e+00 1.194949999999999957e+00 -3.353308000000000177e+00 -9.468569999999999487e-01 -4.720799999999999996e-02 -4.595299999999999940e-01 -1.760966000000000031e+00 8.196240000000000192e-01 -8.529949999999999477e-01
-9.203170000000000517e-01 -5.344510000000000094e-01 3.387879999999999781e-01 1.302356000000000069e+00 3.259800000000000197e-02 2.268380000000000118e-01 -5.672909999999999897e-01 3.320219999999999838e-01 2.960940000000000238e-01 -7.233810000000000517e-01 -2.821900000000000103e-02 -1.552429999999999921e-01 6.149729999999999919e-01 3.154509999999999814e-01 -3.923010000000000108e-01 5.041229999999999878e-01 -2.905829999999999802e-01 -5.534499999999999975e-01 1.688280000000000058e-01 -1.053589999999999943e-01 6.882059999999999844e-01 -6.189299999999999802e-01 -3.881319999999999770e-01 7.542689999999999673e-01 1.038631000000000082e+00 3.101699999999999943e-02 -8.281741999999999493e+00 9.429100000000000259e-01 4.263140000000000263e-01 -2.009830000000000005e+00 -4.397739999999999982e-01 1.568769999999999887e-01 9.058275000000000077e+00 -1.302127999999999952e+00 5.246499999999999775e-02 3.009600000000000122e-02
-8.617200000000000415e-01 -5.339460000000000317e-01 7.028199999999999725e-02 1.729095000000000049e+00 4.638829999999999898e-01 -8.141490000000000116e-01 -9.091110000000000024e-01 -1.095180000000000042e+00 -4.288870000000000182e-01 3.768940000000000068e-01 1.706689999999999874e-01 -3.013279999999999847e-01 -7.305869999999999864e-01 4.095440000000000191e-01 -5.271759999999999780e-01 1.088567999999999980e+00 -5.673199999999999771e-02 6.333879999999999511e-01 -1.150699999999999987e-02 -4.578100000000000225e-02 4.417760000000000020e-01 -1.850999999999999868e-02 2.786859999999999893e-01 -3.237019999999999897e-01 7.893337999999999965e+00 1.296369000000000105e+00 -1.549749000000000043e+00 -1.911666000000000087e+00 7.516239999999999588e-01 -4.693800000000000194e-01 -7.118322000000000038e+00 -1.671405999999999947e+00 3.117736999999999981e+00 4.735280000000000045e-01 3.227100000000000107e-02 1.511869999999999881e-01
-9.369900000000000451e-02 -3.241789999999999949e-01 -2.400211000000000094e+00 1.720500000000000154e-02 -1.688439999999999941e-01 -9.750999999999999251e-03 2.633059999999999845e-01 -5.931999999999999773e-02 -4.725520000000000276e-01 4.069010000000000127e-01 -4.381559999999999899e-01 3.940910000000000246e-01 8.013620000000000188e-01 -2.678209999999999757e-01 -5.095870000000000122e-01 1.252580000000000082e-01 2.245080000000000131e-01 2.007770000000000110e-01 -3.130539999999999989e-01 1.944609999999999950e-01 2.706000000000000072e-03 9.183010000000000339e-01 -8.377470000000000194e-01 -2.091896000000000200e+00 -6.914439999999999475e-01 3.666150000000000242e-01 5.251069999999999904e-01 -4.025630000000000042e-01 7.297609999999999930e-01 2.724131999999999998e+00 -6.627260000000000373e-01 8.780679999999999596e-01 1.416641999999999957e+00 -3.688480000000000092e-01 -2.973469999999999724e-01 2.205429999999999890e-01
-1.302847000000000088e+00 -6.697290000000000187e-01 6.600699999999999623e-02 9.794150000000000356e-01 -1.289180999999999910e+00 -2.313537000000000177e+00 8.645340000000000247e-01 5.592719999999999914e-01 6.636309999999999709e-01 1.092683000000000071e+00 -2.190370000000000095e-01 -1.990334000000000048e+00 -5.703907000000000060e+00 1.131375999999999937e+00 8.334386000000000294e+00 -1.461341000000000001e+00 1.191144999999999898e+00 -1.249500000000000055e-01 9.582349999999999479e-01 2.384199999999999861e-02 1.715651000000000037e+00 2.196683999999999859e+00 -1.050896999999999970e+00 1.153745999999999938e+00 -5.891499999999999515e-01 8.943830000000000391e-01 2.927569999999999895e-01 -1.654827000000000048e+00 7.051570000000000338e-01 1.005622999999999934e+00 5.587784000000000084e+00 -7.403819999999999846e-01 -8.003973000000000226e+00 -9.672650000000000414e-01 -5.359500000000000375e-01 -7.990070000000000228e-01
1.615389999999999882e-01 4.348500000000000282e-02 1.340000000000000045e-03 -4.754599999999999799e-02 -3.135910000000000086e-01 -1.250764999999999905e+00 -8.380849999999999689e-01 2.198559999999999959e-01 -5.838860000000000161e-01 -2.069529999999999870e+00 3.199298999999999893e+00 1.314368299999999934e+01 -6.857959999999999612e-01 1.319319999999999937e-01 -2.296269999999999978e-01 7.525699999999999612e-01 -9.686999999999999778e-02 -3.045669999999999766e-01 1.968758999999999926e+00 -2.869584000000000135e+00 -1.282264100000000084e+01 3.470059999999999811e-01 3.306100000000000011e-02 4.309500000000000136e-02 1.979569999999999941e-01 -1.376940000000000108e-01 9.479319999999999968e-01 3.729720000000000257e-01 1.452999999999999951e-02 -3.657710000000000128e-01 -1.208629999999999982e-01 -7.436299999999999855e-02 1.636740000000000084e+00 -3.898399999999999782e-02 -1.500620000000000009e-01 -2.155330000000000024e-01
9.118619999999999504e-01 -1.694819999999999938e-01 4.828189000000000064e+00 -1.179251999999999967e+00 7.729230000000000267e-01 -7.007480000000000375e-01 1.177386000000000044e+00 -8.249699999999999811e-01 1.419680999999999971e+00 4.952670000000000128e-01 -7.418360000000000509e-01 -5.331495999999999569e+00 9.742570000000000396e-01 -2.478829999999999922e-01 -5.824800000000000116e-02 8.415000000000000605e-03 1.090040000000000037e-01 -7.093639999999999946e-01 3.299460000000000170e-01 7.463030000000000497e-01 4.515199999999999769e-02 -8.058030000000000470e-01 4.510000000000000120e-04 1.927490000000000037e-01 6.362539999999999862e-01 -1.427630000000000010e-01 -7.267010000000000414e-01 -2.075009999999999910e-01 -1.268637999999999932e+00 -5.064330000000000220e-01 -6.584950000000000525e-01 9.098490000000000189e-01 6.564910000000000467e-01 -1.682336999999999971e+00 8.570410000000000528e-01 8.907270000000000465e-01
-2.878640000000000088e-01 -1.385327999999999893e+00 4.680219000000000129e+00 -1.988159999999999927e+00 -7.629249999999999643e-01 6.475929999999999742e-01 1.713989999999999958e-01 8.825570000000000359e-01 -3.146052000000000071e+00 9.532999999999999807e-03 4.276610000000000134e-01 -4.980950000000000100e-01 1.105385999999999980e+00 -1.663674000000000097e+00 1.279201000000000032e+00 -1.079429999999999973e-01 6.554370000000000474e-01 -1.123137000000000052e+00 1.468730000000000036e-01 6.917000000000000405e-03 5.040069999999999828e-01 -1.338602999999999987e+00 3.738009999999999944e-01 2.989979999999999860e-01 7.488460000000000116e-01 -7.195519999999999694e-01 2.790655999999999803e+00 -7.084160000000000457e-01 1.052364999999999995e+00 -5.024881999999999849e+00 8.410099999999999520e-02 3.877760000000000096e-01 -1.359039999999999970e-01 2.164848000000000106e+00 7.449660000000000171e-01 -2.726029999999999842e-01
-3.852059999999999929e-01 -1.506799999999999980e-02 -3.588359999999999883e-01 -7.011429999999999607e-01 2.602499999999999952e-02 1.119819999999999982e-01 -4.247000000000000081e-02 7.563000000000000278e-02 9.858959999999999946e-01 3.420395000000000074e+00 7.749930000000000430e-01 -5.320753999999999984e+00 -3.314401000000000153e+00 -1.362125000000000030e+00 -2.430884999999999962e+00 -5.195299999999999918e-02 3.762000000000000066e-02 -1.853200000000000125e-01 3.481228000000000211e+00 1.148573999999999984e+00 2.141545999999999950e+00 -2.602840000000000154e-01 -1.546499999999999958e-02 -4.162799999999999834e-01 6.711260000000000003e-01 -1.376680000000000126e-01 5.885599999999999860e-02 -1.267233999999999972e+00 -3.343309999999999893e-01 5.138897000000000048e+00 4.461359999999999770e-01 2.319289999999999963e-01 1.444550000000000001e-01 -1.996194000000000024e+00 -4.301139999999999963e-01 1.304430000000000034e-01
