5.177628198999999931e+00 0.000000000000000000e+00 0.000000000000000000e+00 3.620005600000000129e-02 3.787491365999999804e+00 0.000000000000000000e+00 -2.213235269999999921e-01 3.550570610000000071e-01 1.359207169799999981e+01
5.381091171999999645e+00 0.000000000000000000e+00 0.000000000000000000e+00 2.814871099999999987e-02 3.893775605000000084e+00 0.000000000000000000e+00 2.240791119999999970e-01 3.589200320000000000e-01 1.316880828699999917e+01
5.050552820000000054e+00 0.000000000000000000e+00 0.000000000000000000e+00 -7.855620600000000342e-02 3.734849446000000128e+00 0.000000000000000000e+00 -3.987429880000000204e-01 -1.072744880000000012e-01 1.398144749199999914e+01
5.518771225000000058e+00 0.000000000000000000e+00 0.000000000000000000e+00 5.359456800000000215e-02 3.984714592000000000e+00 0.000000000000000000e+00 1.976390899999999964e-02 -2.619511999999999882e-02 1.406694318999999993e+01
5.164022264999999834e+00 0.000000000000000000e+00 0.000000000000000000e+00 -4.892877300000000179e-02 3.687059092999999788e+00 0.000000000000000000e+00 -1.391787070000000126e-01 1.222199449999999965e-01 1.737904380000000160e+01
5.555581400000000336e+00 0.000000000000000000e+00 0.000000000000000000e+00 -9.127699899999999755e-02 3.787044167999999988e+00 0.000000000000000000e+00 -3.900301400000000251e-01 -3.576727650000000036e-01 1.418764368699999956e+01
5.444252074999999635e+00 0.000000000000000000e+00 0.000000000000000000e+00 -8.560803699999999794e-02 3.699021613999999847e+00 0.000000000000000000e+00 -4.485476520000000189e-01 4.905801510000000198e-01 1.867844383399999941e+01
5.394474412000000108e+00 0.000000000000000000e+00 0.000000000000000000e+00 3.287786399999999970e-02 3.885938868000000213e+00 0.000000000000000000e+00 -4.051301210000000097e-01 -3.731244799999999806e-02 1.590475086500000046e+01
5.164022264999999834e+00 0.000000000000000000e+00 0.000000000000000000e+00 -4.892877300000000179e-02 3.687059092999999788e+00 0.000000000000000000e+00 -1.391787070000000126e-01 1.222199449999999965e-01 1.737904380000000160e+01
5.394474412000000108e+00 0.000000000000000000e+00 0.000000000000000000e+00 3.287786399999999970e-02 3.885938868000000213e+00 0.000000000000000000e+00 -4.051301210000000097e-01 -3.731244799999999806e-02 1.590475086500000046e+01
5.177628198999999931e+00 0.000000000000000000e+00 0.000000000000000000e+00 3.620005600000000129e-02 3.787491365999999804e+00 0.000000000000000000e+00 -2.213235269999999921e-01 3.550570610000000071e-01 1.359207169799999981e+01
5.394474412000000108e+00 0.000000000000000000e+00 0.000000000000000000e+00 3.287786399999999970e-02 3.885938868000000213e+00 0.000000000000000000e+00 -4.051301210000000097e-01 -3.731244799999999806e-02 1.590475086500000046e+01
5.391176255000000417e+00 0.000000000000000000e+00 0.000000000000000000e+00 7.222450599999999388e-02 3.846121629000000208e+00 0.000000000000000000e+00 4.196887249999999847e-01 4.110140930000000248e-01 1.666308134899999871e+01
5.444252074999999635e+00 0.000000000000000000e+00 0.000000000000000000e+00 -8.560803699999999794e-02 3.699021613999999847e+00 0.000000000000000000e+00 -4.485476520000000189e-01 4.905801510000000198e-01 1.867844383399999941e+01
5.381091171999999645e+00 0.000000000000000000e+00 0.000000000000000000e+00 2.814871099999999987e-02 3.893775605000000084e+00 0.000000000000000000e+00 2.240791119999999970e-01 3.589200320000000000e-01 1.316880828699999917e+01
5.544752460999999855e+00 0.000000000000000000e+00 0.000000000000000000e+00 9.863669000000000256e-03 3.979762034000000170e+00 0.000000000000000000e+00 1.332444909999999927e-01 -9.699114899999999873e-02 1.616437913900000112e+01
5.464383649000000176e+00 0.000000000000000000e+00 0.000000000000000000e+00 7.022943900000000461e-02 3.746127895999999957e+00 0.000000000000000000e+00 -2.380910689999999885e-01 1.223207400000000077e-02 1.385919215999999921e+01
5.506513147999999802e+00 0.000000000000000000e+00 0.000000000000000000e+00 -2.359592699999999918e-02 3.949013034000000033e+00 0.000000000000000000e+00 3.434105999999999964e-02 4.079308280000000231e-01 1.972672376599999922e+01
5.506513147999999802e+00 0.000000000000000000e+00 0.000000000000000000e+00 -2.359592699999999918e-02 3.949013034000000033e+00 0.000000000000000000e+00 3.434105999999999964e-02 4.079308280000000231e-01 1.972672376599999922e+01
5.397588164000000077e+00 0.000000000000000000e+00 0.000000000000000000e+00 -9.225649499999999392e-02 3.806817843000000146e+00 0.000000000000000000e+00 3.664408350000000203e-01 -2.738864140000000225e-01 1.454306762400000075e+01
5.381091171999999645e+00 0.000000000000000000e+00 0.000000000000000000e+00 2.814871099999999987e-02 3.893775605000000084e+00 0.000000000000000000e+00 2.240791119999999970e-01 3.589200320000000000e-01 1.316880828699999917e+01
5.464383649000000176e+00 0.000000000000000000e+00 0.000000000000000000e+00 7.022943900000000461e-02 3.746127895999999957e+00 0.000000000000000000e+00 -2.380910689999999885e-01 1.223207400000000077e-02 1.385919215999999921e+01
5.461412508000000443e+00 0.000000000000000000e+00 0.000000000000000000e+00 7.277024599999999677e-02 3.775403181999999802e+00 0.000000000000000000e+00 3.217833199999999838e-01 -3.872563450000000018e-01 1.856826761700000006e+01
5.544752460999999855e+00 0.000000000000000000e+00 0.000000000000000000e+00 9.863669000000000256e-03 3.979762034000000170e+00 0.000000000000000000e+00 1.332444909999999927e-01 -9.699114899999999873e-02 1.616437913900000112e+01
5.394474412000000108e+00 0.000000000000000000e+00 0.000000000000000000e+00 3.287786399999999970e-02 3.885938868000000213e+00 0.000000000000000000e+00 -4.051301210000000097e-01 -3.731244799999999806e-02 1.590475086500000046e+01
5.381091171999999645e+00 0.000000000000000000e+00 0.000000000000000000e+00 2.814871099999999987e-02 3.893775605000000084e+00 0.000000000000000000e+00 2.240791119999999970e-01 3.589200320000000000e-01 1.316880828699999917e+01
5.544752460999999855e+00 0.000000000000000000e+00 0.000000000000000000e+00 9.863669000000000256e-03 3.979762034000000170e+00 0.000000000000000000e+00 1.332444909999999927e-01 -9.699114899999999873e-02 1.616437913900000112e+01
5.544752460999999855e+00 0.000000000000000000e+00 0.000000000000000000e+00 9.863669000000000256e-03 3.979762034000000170e+00 0.000000000000000000e+00 1.332444909999999927e-01 -9.699114899999999873e-02 1.616437913900000112e+01
5.326066634000000022e+00 0.000000000000000000e+00 0.000000000000000000e+00 8.717242899999999572e-02 3.984901950999999887e+00 0.000000000000000000e+00 -3.572275610000000268e-01 1.285997620000000063e-01 1.271976260699999983e+01
5.444252074999999635e+00 0.000000000000000000e+00 0.000000000000000000e+00 -8.560803699999999794e-02 3.699021613999999847e+00 0.000000000000000000e+00 -4.485476520000000189e-01 4.905801510000000198e-01 1.867844383399999941e+01
5.177628198999999931e+00 0.000000000000000000e+00 0.000000000000000000e+00 3.620005600000000129e-02 3.787491365999999804e+00 0.000000000000000000e+00 -2.213235269999999921e-01 3.550570610000000071e-01 1.359207169799999981e+01
5.506513147999999802e+00 0.000000000000000000e+00 0.000000000000000000e+00 -2.359592699999999918e-02 3.949013034000000033e+00 0.000000000000000000e+00 3.434105999999999964e-02 4.079308280000000231e-01 1.972672376599999922e+01
5.217672406000000151e+00 0.000000000000000000e+00 0.000000000000000000e+00 -3.522737499999999827e-02 3.652673575000000117e+00 0.000000000000000000e+00 -4.721037290000000275e-01 3.263127100000000336e-02 1.672142372900000140e+01
5.177628198999999931e+00 0.000000000000000000e+00 0.000000000000000000e+00 3.620005600000000129e-02 3.787491365999999804e+00 0.000000000000000000e+00 -2.213235269999999921e-01 3.550570610000000071e-01 1.359207169799999981e+01
5.326066634000000022e+00 0.000000000000000000e+00 0.000000000000000000e+00 8.717242899999999572e-02 3.984901950999999887e+00 0.000000000000000000e+00 -3.572275610000000268e-01 1.285997620000000063e-01 1.271976260699999983e+01
4.946359490999999942e+00 0.000000000000000000e+00 0.000000000000000000e+00 5.039232400000000223e-02 3.605047800999999996e+00 0.000000000000000000e+00 -7.001932499999999338e-02 4.567351860000000152e-01 1.896697202500000046e+01
5.262280720999999772e+00 0.000000000000000000e+00 0.000000000000000000e+00 2.962552599999999925e-02 3.670841679000000024e+00 0.000000000000000000e+00 -3.138112330000000227e-01 -4.559994500000000284e-02 1.275272643599999967e+01
5.464383649000000176e+00 0.000000000000000000e+00 0.000000000000000000e+00 7.022943900000000461e-02 3.746127895999999957e+00 0.000000000000000000e+00 -2.380910689999999885e-01 1.223207400000000077e-02 1.385919215999999921e+01
5.381091171999999645e+00 0.000000000000000000e+00 0.000000000000000000e+00 2.814871099999999987e-02 3.893775605000000084e+00 0.000000000000000000e+00 2.240791119999999970e-01 3.589200320000000000e-01 1.316880828699999917e+01
5.381091171999999645e+00 0.000000000000000000e+00 0.000000000000000000e+00 2.814871099999999987e-02 3.893775605000000084e+00 0.000000000000000000e+00 2.240791119999999970e-01 3.589200320000000000e-01 1.316880828699999917e+01
5.164022264999999834e+00 0.000000000000000000e+00 0.000000000000000000e+00 -4.892877300000000179e-02 3.687059092999999788e+00 0.000000000000000000e+00 -1.391787070000000126e-01 1.222199449999999965e-01 1.737904380000000160e+01
5.326066634000000022e+00 0.000000000000000000e+00 0.000000000000000000e+00 8.717242899999999572e-02 3.984901950999999887e+00 0.000000000000000000e+00 -3.572275610000000268e-01 1.285997620000000063e-01 1.271976260699999983e+01
5.461412508000000443e+00 0.000000000000000000e+00 0.000000000000000000e+00 7.277024599999999677e-02 3.775403181999999802e+00 0.000000000000000000e+00 3.217833199999999838e-01 -3.872563450000000018e-01 1.856826761700000006e+01
5.381091171999999645e+00 0.000000000000000000e+00 0.000000000000000000e+00 2.814871099999999987e-02 3.893775605000000084e+00 0.000000000000000000e+00 2.240791119999999970e-01 3.589200320000000000e-01 1.316880828699999917e+01
5.444252074999999635e+00 0.000000000000000000e+00 0.000000000000000000e+00 -8.560803699999999794e-02 3.699021613999999847e+00 0.000000000000000000e+00 -4.485476520000000189e-01 4.905801510000000198e-01 1.867844383399999941e+01
5.544752460999999855e+00 0.000000000000000000e+00 0.000000000000000000e+00 9.863669000000000256e-03 3.979762034000000170e+00 0.000000000000000000e+00 1.332444909999999927e-01 -9.699114899999999873e-02 1.616437913900000112e+01
5.381091171999999645e+00 0.000000000000000000e+00 0.000000000000000000e+00 2.814871099999999987e-02 3.893775605000000084e+00 0.000000000000000000e+00 2.240791119999999970e-01 3.589200320000000000e-01 1.316880828699999917e+01
5.326066634000000022e+00 0.000000000000000000e+00 0.000000000000000000e+00 8.717242899999999572e-02 3.984901950999999887e+00 0.000000000000000000e+00 -3.572275610000000268e-01 1.285997620000000063e-01 1.271976260699999983e+01
5.164022264999999834e+00 0.000000000000000000e+00 0.000000000000000000e+00 -4.892877300000000179e-02 3.687059092999999788e+00 0.000000000000000000e+00 -1.391787070000000126e-01 1.222199449999999965e-01 1.737904380000000160e+01
5.022635902000000208e+00 0.000000000000000000e+00 0.000000000000000000e+00 -8.458247800000000260e-02 3.592197683000000197e+00 0.000000000000000000e+00 3.892712400000000045e-02 3.008902170000000154e-01 1.890105715300000000e+01
5.464383649000000176e+00 0.000000000000000000e+00 0.000000000000000000e+00 7.022943900000000461e-02 3.746127895999999957e+00 0.000000000000000000e+00 -2.380910689999999885e-01 1.223207400000000077e-02 1.385919215999999921e+01
5.403097251000000156e+00 0.000000000000000000e+00 0.000000000000000000e+00 5.507463499999999679e-02 3.880301951999999943e+00 0.000000000000000000e+00 2.113047809999999971e-01 1.291900400000000060e-01 1.439722179199999985e+01
5.381091171999999645e+00 0.000000000000000000e+00 0.000000000000000000e+00 2.814871099999999987e-02 3.893775605000000084e+00 0.000000000000000000e+00 2.240791119999999970e-01 3.589200320000000000e-01 1.316880828699999917e+01
5.164022264999999834e+00 0.000000000000000000e+00 0.000000000000000000e+00 -4.892877300000000179e-02 3.687059092999999788e+00 0.000000000000000000e+00 -1.391787070000000126e-01 1.222199449999999965e-01 1.737904380000000160e+01
5.464383649000000176e+00 0.000000000000000000e+00 0.000000000000000000e+00 7.022943900000000461e-02 3.746127895999999957e+00 0.000000000000000000e+00 -2.380910689999999885e-01 1.223207400000000077e-02 1.385919215999999921e+01
5.381091171999999645e+00 0.000000000000000000e+00 0.000000000000000000e+00 2.814871099999999987e-02 3.893775605000000084e+00 0.000000000000000000e+00 2.240791119999999970e-01 3.589200320000000000e-01 1.316880828699999917e+01
5.544752460999999855e+00 0.000000000000000000e+00 0.000000000000000000e+00 9.863669000000000256e-03 3.979762034000000170e+00 0.000000000000000000e+00 1.332444909999999927e-01 -9.699114899999999873e-02 1.616437913900000112e+01
5.544752460999999855e+00 0.000000000000000000e+00 0.000000000000000000e+00 9.863669000000000256e-03 3.979762034000000170e+00 0.000000000000000000e+00 1.332444909999999927e-01 -9.699114899999999873e-02 1.616437913900000112e+01
5.506513147999999802e+00 0.000000000000000000e+00 0.000000000000000000e+00 -2.359592699999999918e-02 3.949013034000000033e+00 0.000000000000000000e+00 3.434105999999999964e-02 4.079308280000000231e-01 1.972672376599999922e+01
5.575107305999999596e+00 0.000000000000000000e+00 0.000000000000000000e+00 4.016569700000000021e-02 3.879254158000000174e+00 0.000000000000000000e+00 -2.091927409999999876e-01 -2.062535799999999989e-02 1.288631411799999960e+01
5.394474412000000108e+00 0.000000000000000000e+00 0.000000000000000000e+00 3.287786399999999970e-02 3.885938868000000213e+00 0.000000000000000000e+00 -4.051301210000000097e-01 -3.731244799999999806e-02 1.590475086500000046e+01
5.394474412000000108e+00 0.000000000000000000e+00 0.000000000000000000e+00 3.287786399999999970e-02 3.885938868000000213e+00 0.000000000000000000e+00 -4.051301210000000097e-01 -3.731244799999999806e-02 1.590475086500000046e+01
5.544752460999999855e+00 0.000000000000000000e+00 0.000000000000000000e+00 9.863669000000000256e-03 3.979762034000000170e+00 0.000000000000000000e+00 1.332444909999999927e-01 -9.699114899999999873e-02 1.616437913900000112e+01
5.381091171999999645e+00 0.000000000000000000e+00 0.000000000000000000e+00 2.814871099999999987e-02 3.893775605000000084e+00 0.000000000000000000e+00 2.240791119999999970e-01 3.589200320000000000e-01 1.316880828699999917e+01
5.326066634000000022e+00 0.000000000000000000e+00 0.000000000000000000e+00 8.717242899999999572e-02 3.984901950999999887e+00 0.000000000000000000e+00 -3.572275610000000268e-01 1.285997620000000063e-01 1.271976260699999983e+01
5.464383649000000176e+00 0.000000000000000000e+00 0.000000000000000000e+00 7.022943900000000461e-02 3.746127895999999957e+00 0.000000000000000000e+00 -2.380910689999999885e-01 1.223207400000000077e-02 1.385919215999999921e+01
5.164022264999999834e+00 0.000000000000000000e+00 0.000000000000000000e+00 -4.892877300000000179e-02 3.687059092999999788e+00 0.000000000000000000e+00 -1.391787070000000126e-01 1.222199449999999965e-01 1.737904380000000160e+01
5.464383649000000176e+00 0.000000000000000000e+00 0.000000000000000000e+00 7.022943900000000461e-02 3.746127895999999957e+00 0.000000000000000000e+00 -2.380910689999999885e-01 1.223207400000000077e-02 1.385919215999999921e+01
5.228673427000000373e+00 0.000000000000000000e+00 0.000000000000000000e+00 6.944157800000000380e-02 3.854260972000000063e+00 0.000000000000000000e+00 2.044698550000000059e-01 -3.312307879999999982e-01 1.319664546599999966e+01
5.303269936999999601e+00 0.000000000000000000e+00 0.000000000000000000e+00 2.146788000000000168e-02 3.778986501999999970e+00 0.000000000000000000e+00 -1.115492579999999984e-01 2.777425929999999821e-01 1.375900199300000004e+01
5.381091171999999645e+00 0.000000000000000000e+00 0.000000000000000000e+00 2.814871099999999987e-02 3.893775605000000084e+00 0.000000000000000000e+00 2.240791119999999970e-01 3.589200320000000000e-01 1.316880828699999917e+01
5.506513147999999802e+00 0.000000000000000000e+00 0.000000000000000000e+00 -2.359592699999999918e-02 3.949013034000000033e+00 0.000000000000000000e+00 3.434105999999999964e-02 4.079308280000000231e-01 1.972672376599999922e+01
5.574414573000000317e+00 0.000000000000000000e+00 0.000000000000000000e+00 7.327229999999999854e-02 3.972018638000000212e+00 0.000000000000000000e+00 2.363187210000000094e-01 -1.882817169999999873e-01 1.798565514899999940e+01
5.544752460999999855e+00 0.000000000000000000e+00 0.000000000000000000e+00 9.863669000000000256e-03 3.979762034000000170e+00 0.000000000000000000e+00 1.332444909999999927e-01 -9.699114899999999873e-02 1.616437913900000112e+01
5.544752460999999855e+00 0.000000000000000000e+00 0.000000000000000000e+00 9.863669000000000256e-03 3.979762034000000170e+00 0.000000000000000000e+00 1.332444909999999927e-01 -9.699114899999999873e-02 1.616437913900000112e+01
5.004020749999999573e+00 0.000000000000000000e+00 0.000000000000000000e+00 -8.091916999999999860e-02 3.546272383999999889e+00 0.000000000000000000e+00 -3.139052449999999994e-01 9.981621499999999980e-02 1.521037747199999934e+01
5.555581400000000336e+00 0.000000000000000000e+00 0.000000000000000000e+00 -9.127699899999999755e-02 3.787044167999999988e+00 0.000000000000000000e+00 -3.900301400000000251e-01 -3.576727650000000036e-01 1.418764368699999956e+01
5.394474412000000108e+00 0.000000000000000000e+00 0.000000000000000000e+00 3.287786399999999970e-02 3.885938868000000213e+00 0.000000000000000000e+00 -4.051301210000000097e-01 -3.731244799999999806e-02 1.590475086500000046e+01
5.326066634000000022e+00 0.000000000000000000e+00 0.000000000000000000e+00 8.717242899999999572e-02 3.984901950999999887e+00 0.000000000000000000e+00 -3.572275610000000268e-01 1.285997620000000063e-01 1.271976260699999983e+01
5.326066634000000022e+00 0.000000000000000000e+00 0.000000000000000000e+00 8.717242899999999572e-02 3.984901950999999887e+00 0.000000000000000000e+00 -3.572275610000000268e-01 1.285997620000000063e-01 1.271976260699999983e+01
5.403097251000000156e+00 0.000000000000000000e+00 0.000000000000000000e+00 5.507463499999999679e-02 3.880301951999999943e+00 0.000000000000000000e+00 2.113047809999999971e-01 1.291900400000000060e-01 1.439722179199999985e+01
5.177628198999999931e+00 0.000000000000000000e+00 0.000000000000000000e+00 3.620005600000000129e-02 3.787491365999999804e+00 0.000000000000000000e+00 -2.213235269999999921e-01 3.550570610000000071e-01 1.359207169799999981e+01
5.067718624000000283e+00 0.000000000000000000e+00 0.000000000000000000e+00 -9.566223999999999561e-02 3.628607514000000034e+00 0.000000000000000000e+00 1.174530909999999956e-01 -3.396022160000000123e-01 1.636649095499999973e+01
5.506513147999999802e+00 0.000000000000000000e+00 0.000000000000000000e+00 -2.359592699999999918e-02 3.949013034000000033e+00 0.000000000000000000e+00 3.434105999999999964e-02 4.079308280000000231e-01 1.972672376599999922e+01
5.164022264999999834e+00 0.000000000000000000e+00 0.000000000000000000e+00 -4.892877300000000179e-02 3.687059092999999788e+00 0.000000000000000000e+00 -1.391787070000000126e-01 1.222199449999999965e-01 1.737904380000000160e+01
5.461412508000000443e+00 0.000000000000000000e+00 0.000000000000000000e+00 7.277024599999999677e-02 3.775403181999999802e+00 0.000000000000000000e+00 3.217833199999999838e-01 -3.872563450000000018e-01 1.856826761700000006e+01
5.544752460999999855e+00 0.000000000000000000e+00 0.000000000000000000e+00 9.863669000000000256e-03 3.979762034000000170e+00 0.000000000000000000e+00 1.332444909999999927e-01 -9.699114899999999873e-02 1.616437913900000112e+01
5.391176255000000417e+00 0.000000000000000000e+00 0.000000000000000000e+00 7.222450599999999388e-02 3.846121629000000208e+00 0.000000000000000000e+00 4.196887249999999847e-01 4.110140930000000248e-01 1.666308134899999871e+01
5.506513147999999802e+00 0.000000000000000000e+00 0.000000000000000000e+00 -2.359592699999999918e-02 3.949013034000000033e+00 0.000000000000000000e+00 3.434105999999999964e-02 4.079308280000000231e-01 1.972672376599999922e+01
5.544752460999999855e+00 0.000000000000000000e+00 0.000000000000000000e+00 9.863669000000000256e-03 3.979762034000000170e+00 0.000000000000000000e+00 1.332444909999999927e-01 -9.699114899999999873e-02 1.616437913900000112e+01
5.391176255000000417e+00 0.000000000000000000e+00 0.000000000000000000e+00 7.222450599999999388e-02 3.846121629000000208e+00 0.000000000000000000e+00 4.196887249999999847e-01 4.110140930000000248e-01 1.666308134899999871e+01
5.326066634000000022e+00 0.000000000000000000e+00 0.000000000000000000e+00 8.717242899999999572e-02 3.984901950999999887e+00 0.000000000000000000e+00 -3.572275610000000268e-01 1.285997620000000063e-01 1.271976260699999983e+01
5.164022264999999834e+00 0.000000000000000000e+00 0.000000000000000000e+00 -4.892877300000000179e-02 3.687059092999999788e+00 0.000000000000000000e+00 -1.391787070000000126e-01 1.222199449999999965e-01 1.737904380000000160e+01
5.228673427000000373e+00 0.000000000000000000e+00 0.000000000000000000e+00 6.944157800000000380e-02 3.854260972000000063e+00 0.000000000000000000e+00 2.044698550000000059e-01 -3.312307879999999982e-01 1.319664546599999966e+01
5.050552820000000054e+00 0.000000000000000000e+00 0.000000000000000000e+00 -7.855620600000000342e-02 3.734849446000000128e+00 0.000000000000000000e+00 -3.987429880000000204e-01 -1.072744880000000012e-01 1.398144749199999914e+01
5.326066634000000022e+00 0.000000000000000000e+00 0.000000000000000000e+00 8.717242899999999572e-02 3.984901950999999887e+00 0.000000000000000000e+00 -3.572275610000000268e-01 1.285997620000000063e-01 1.271976260699999983e+01
5.326066634000000022e+00 0.000000000000000000e+00 0.000000000000000000e+00 8.717242899999999572e-02 3.984901950999999887e+00 0.000000000000000000e+00 -3.572275610000000268e-01 1.285997620000000063e-01 1.271976260699999983e+01
5.464383649000000176e+00 0.000000000000000000e+00 0.000000000000000000e+00 7.022943900000000461e-02 3.746127895999999957e+00 0.000000000000000000e+00 -2.380910689999999885e-01 1.223207400000000077e-02 1.385919215999999921e+01
5.164022264999999834e+00 0.000000000000000000e+00 0.000000000000000000e+00 -4.892877300000000179e-02 3.687059092999999788e+00 0.000000000000000000e+00 -1.391787070000000126e-01 1.222199449999999965e-01 1.737904380000000160e+01
5.544752460999999855e+00 0.000000000000000000e+00 0.000000000000000000e+00 9.863669000000000256e-03 3.979762034000000170e+00 0.000000000000000000e+00 1.332444909999999927e-01 -9.699114899999999873e-02 1.616437913900000112e+01
