1.963799999999999990e-01 2.100220000000000198e+00 1.034270000000000067e+01 2.720429999999999904e+00 1.884109999999999951e+00 3.796650000000000080e+00 1.708099999999999896e-01 1.731549999999999923e+00 2.014540000000000219e+00 1.300089999999999968e+00 1.165070000000000050e+00 1.213850000000000051e+01 5.549199999999999688e-01 1.083660000000000068e+00 5.710049999999999848e+00 3.592909999999999826e+00 3.037799999999999945e-01 8.028079999999999217e+00 1.461619999999999919e+00 1.570910000000000029e+00 8.477719999999999700e+00 8.641499999999999737e-01 9.275099999999999456e-01 3.687930000000000152e+00 3.347649999999999793e+00 2.203349999999999920e+00 1.228069999999999951e+01 2.372180000000000177e+00 4.566200000000000259e-01 2.071549999999999780e+00 2.738989999999999814e+00 2.494200000000000028e-01 6.029209999999999958e+00 2.477819999999999911e+00 2.140299999999999980e-01 1.013429999999999964e+01
1.372849999999999904e+00 1.807760000000000034e+00 1.042420000000000080e+01 2.821540000000000159e+00 2.560100000000000153e-01 5.527599999999999625e+00 1.807080000000000020e+00 2.104350000000000165e+00 7.263699999999999601e-01 4.540659999999999918e+00 2.584859999999999935e+00 6.450499999999999901e+00 3.082920000000000105e+00 1.576999999999999957e+00 1.438339999999999996e+01 3.190589999999999815e+00 2.167250000000000121e+00 2.723619999999999930e+00 6.713500000000000023e-01 1.939799999999999969e+00 1.531799999999999962e+01 4.037849999999999717e+00 1.841080000000000050e+00 1.149290000000000056e+01 2.179990000000000094e+00 7.878000000000000280e-02 8.459740000000000038e+00 2.044340000000000046e+00 9.127399999999999958e-01 1.246570000000000000e+01 4.527040000000000397e+00 4.754999999999999782e-01 9.137969999999999260e+00 3.908710000000000129e+00 3.851800000000000224e-01 6.411599999999999522e-01
4.342959999999999710e+00 8.697599999999999776e-01 9.122059999999999391e+00 3.306200000000000250e-01 2.498940000000000161e+00 1.956747000000000014e+01 2.140350000000000197e+00 2.014810000000000212e+00 6.557890000000000441e+00 2.517269999999999897e+00 1.452579999999999982e+00 4.185769999999999769e+00 2.100089999999999790e+00 2.322179999999999911e+00 8.826510000000000744e+00 7.296999999999999320e-02 1.035719999999999974e+00 6.701600000000000001e+00 2.581939999999999902e+00 1.824740000000000029e+00 1.948620000000000019e+01 5.238099999999999978e-01 2.684600000000000097e+00 4.501030000000000086e+00 3.160700000000000176e-01 7.524800000000000377e-01 2.242070000000000007e+00 1.449900000000000078e-01 1.673189999999999955e+00 1.276299999999999990e+01 2.991839999999999833e+00 1.544620000000000104e+00 1.112310000000000088e+01 2.669890000000000096e+00 1.622309999999999919e+00 2.165049999999999919e+00
3.654840000000000089e+00 1.330440000000000067e+00 1.769269999999999898e+00 1.189929999999999932e+00 4.510000000000000120e-01 2.798290000000000166e+00 1.153129999999999988e+00 1.921999999999999931e+00 4.935300000000000242e-01 3.277890000000000192e+00 1.461789999999999923e+00 1.164199999999999946e+01 3.651730000000000143e+00 1.856200000000000072e+00 1.672790000000000177e+01 6.240799999999999681e-01 1.228229999999999933e+00 5.108679999999999666e+00 8.305399999999999450e-01 1.745039999999999925e+00 1.005860000000000021e+01 1.485880000000000090e+00 1.678670000000000107e+00 1.541329999999999956e+01 2.513729999999999798e+00 3.245799999999999796e-01 1.337729999999999997e+01 3.121100000000000207e+00 6.381099999999999550e-01 6.040939999999999976e+00 5.847700000000000120e-01 1.123680000000000012e+00 1.219270000000000032e+01 3.535429999999999851e+00 1.006900000000000017e-01 3.734500000000000153e+00
1.796189999999999953e+00 1.922760000000000025e+00 1.919859999999999900e+01 4.164240000000000386e+00 1.130179999999999962e+00 1.788240000000000052e+01 3.430759999999999810e+00 1.080499999999999933e-01 6.755670000000000286e+00 2.623839999999999950e+00 1.443289999999999962e+00 1.185689999999999955e+01 2.526850000000000041e+00 2.276170000000000027e+00 2.489759999999999973e+00 2.490999999999999881e-01 6.797999999999999876e-02 1.225799999999999912e+01 5.437600000000000211e-01 1.042859999999999898e+00 2.194240000000000190e+00 9.298399999999999999e-01 4.850200000000000067e-01 9.618890000000000384e+00 3.864009999999999945e+00 1.053569999999999895e+00 3.465199999999999947e-01 3.186560000000000059e+00 2.005669999999999842e+00 8.561510000000000176e+00 2.088849999999999874e+00 1.283840000000000092e+00 4.523900000000000254e+00 1.345339999999999980e+00 1.417960000000000109e+00 7.173329999999999984e+00
1.765749999999999931e+00 1.268210000000000059e+00 1.349019999999999975e+01 2.500609999999999999e+00 1.043930000000000025e+00 7.441100000000000492e-01 2.914100000000000024e-01 6.295699999999999630e-01 2.080489999999999995e+01 3.791720000000000201e+00 2.261719999999999953e+00 1.420870000000000033e+01 5.800600000000000200e-01 8.128400000000000070e-01 9.334929999999999950e+00 2.423849999999999838e+00 2.039390000000000036e+00 3.732899999999999885e+00 2.669599999999999751e-01 1.344240000000000101e+00 2.107860000000000067e+00 2.796839999999999993e+00 7.720200000000000395e-01 5.846510000000000318e+00 6.816299999999999581e-01 1.068199999999999983e-01 6.194350000000000023e+00 3.655079999999999885e+00 1.764250000000000096e+00 1.168329999999999913e+01 1.554089999999999971e+00 2.261900000000000022e-01 1.121199999999999974e+01 2.544799999999999840e-01 1.072440000000000060e+00 4.102470000000000283e+00
1.910290000000000044e+00 1.933389999999999942e+00 6.111449999999999605e+00 4.990899999999999781e-01 3.724100000000000188e-01 8.357010000000000716e+00 7.020899999999999919e-01 9.810299999999999576e-01 1.293909999999999982e+01 8.338700000000000001e-01 1.563819999999999988e+00 1.065189999999999948e+01 1.911759999999999904e+00 4.102600000000000136e-01 4.094210000000000349e+00 2.756390000000000118e+00 2.456440000000000179e+00 8.386369999999999436e+00 4.031360000000000277e+00 8.042500000000000204e-01 6.206059999999999910e+00 1.059679999999999955e+00 9.630800000000000471e-01 2.067470000000000141e+00 3.319850000000000190e+00 2.349040000000000017e+00 1.976779999999999982e+00 2.692070000000000185e+00 1.677759999999999918e+00 1.040779999999999994e+01 4.147070000000000256e+00 1.341420000000000057e+00 4.121550000000000047e+00 2.877699999999999925e+00 1.983190000000000008e+00 1.299150000000000027e+01
4.150280000000000413e+00 2.575779999999999959e+00 1.187319999999999931e+00 4.041170000000000151e+00 2.201439999999999841e+00 1.353919999999999924e+01 2.395939999999999959e+00 1.288799999999999946e+00 2.544869999999999965e+00 1.969309999999999894e+00 1.752979999999999983e+00 1.310979999999999990e+01 3.165360000000000174e+00 2.308260000000000201e+00 7.226259999999999906e+00 4.099400000000000266e-01 1.917180000000000106e+00 3.310690000000000133e+00 2.321369999999999933e+00 4.252099999999999769e-01 3.141499999999999848e-01 3.670119999999999827e+00 4.447800000000000087e-01 9.550380000000000535e+00 3.867700000000000138e+00 2.640550000000000175e+00 1.160870000000000068e+01 7.128400000000000292e-01 5.189000000000000279e-01 6.295770000000000088e+00 1.014219999999999899e+00 2.255819999999999936e+00 8.318540000000000489e+00 2.583149999999999835e+00 2.706269999999999953e+00 4.703610000000000291e+00
6.120900000000000230e-01 2.080309999999999881e+00 3.562479999999999869e+00 3.080100000000000060e-01 1.534319999999999906e+00 1.906309999999999860e+01 3.879400000000000071e-01 1.613539999999999974e+00 1.434179999999999922e+01 2.493030000000000079e+00 2.594660000000000188e+00 1.510640000000000072e+01 6.491000000000000103e-01 2.086939999999999795e+00 1.244800000000000040e+01 1.947859999999999925e+00 7.001399999999999846e-01 9.516280000000000072e+00 3.987200000000000188e-01 1.121629999999999905e+00 1.634349999999999881e+01 2.642399999999999860e+00 1.669939999999999980e+00 1.726709999999999923e+01 2.772530000000000161e+00 1.686100000000000099e-01 5.333700000000000108e-01 4.163079999999999892e+00 5.615900000000000336e-01 1.033779999999999966e+01 2.667619999999999880e+00 1.439910000000000023e+00 2.969259999999999788e+00 6.653200000000000225e-01 1.283269999999999911e+00 1.569879999999999942e+00
3.019760000000000222e+00 7.936999999999999611e-01 8.440559999999999619e+00 2.500290000000000123e+00 1.984269999999999978e+00 5.895950000000000024e+00 1.495479999999999920e+00 1.711440000000000072e+00 1.577960000000000029e+01 3.834280000000000133e+00 1.202380000000000004e+00 1.776760000000000161e+01 1.359639999999999960e+00 1.267759999999999998e+00 1.056530000000000058e+01 4.029630000000000045e+00 2.099740000000000162e+00 2.383210000000000051e+00 1.500539999999999985e+00 -7.036000000000000587e-02 1.350249999999999950e+01 1.212560000000000082e+00 2.092830000000000190e+00 2.771069999999999922e+00 1.881089999999999929e+00 1.569579999999999975e+00 1.855359999999999943e+01 3.955169999999999852e+00 1.415389999999999926e+00 1.265820000000000078e+01 6.892399999999999638e-01 2.090980000000000061e+00 7.344430000000000014e+00 4.113000000000000433e+00 4.662000000000000033e-01 1.054959999999999987e+01
-6.307999999999999718e-02 9.401500000000000412e-01 1.485219999999999985e+01 1.907000000000000015e-02 2.111950000000000216e+00 1.558079999999999909e+00 1.193130000000000024e+00 1.432269999999999932e+00 8.309490000000000265e+00 3.086650000000000116e+00 2.497799999999999798e+00 1.094819999999999993e+01 2.400349999999999984e+00 1.254340000000000011e+00 2.817740000000000133e+00 2.453889999999999905e+00 6.020999999999999686e-01 1.330530000000000079e+01 1.097310000000000008e+00 9.674500000000000322e-01 1.019480000000000075e+01 2.155440000000000023e+00 2.422330000000000094e+00 1.545940000000000047e+01 4.771799999999999931e-01 2.262000000000000122e-01 3.502130000000000187e+00 8.499600000000000488e-01 1.234660000000000091e+00 5.646799999999999820e+00 2.956729999999999858e+00 2.161970000000000169e+00 5.021759999999999557e+00 3.148489999999999789e+00 1.133429999999999938e+00 8.635590000000000543e+00
3.886299999999999755e-01 2.626199999999999868e+00 8.444199999999999484e-01 1.000750000000000028e+00 1.425100000000000033e+00 3.843980000000000175e+00 4.470860000000000056e+00 3.805499999999999994e-01 8.045920000000000627e+00 2.740110000000000046e+00 2.283490000000000020e+00 2.061560000000000059e+01 2.305390000000000050e+00 2.323189999999999866e+00 9.779889999999999972e+00 2.068220000000000169e+00 3.304400000000000115e-01 2.461079999999999934e+00 1.101299999999999946e+00 2.210500000000000131e+00 1.194289999999999985e+01 3.264060000000000183e+00 1.303420000000000023e+00 1.203700000000000081e+01 2.165709999999999802e+00 2.045549999999999979e+00 5.994360000000000355e+00 4.189630000000000187e+00 6.330799999999999761e-01 5.837040000000000006e+00 4.497029999999999639e+00 2.477570000000000050e+00 9.918089999999999407e+00 2.509370000000000100e+00 1.054599999999999982e+00 1.874300000000000133e-01
8.731700000000000017e-01 6.815999999999999837e-02 8.119360000000000355e+00 4.431070000000000064e+00 1.906649999999999956e+00 1.025179999999999936e+01 2.326470000000000038e+00 1.108610000000000095e+00 9.320349999999999469e+00 1.969209999999999905e+00 4.060500000000000220e-01 4.216070000000000206e+00 2.694030000000000147e+00 4.396499999999999853e-01 1.129729999999999990e+01 3.092929999999999957e+00 5.694299999999999917e-01 7.140430000000000277e+00 1.020359999999999934e+00 4.316599999999999882e-01 2.215810000000000102e+01 7.777300000000000324e-01 4.833799999999999764e-01 1.728199999999999958e+00 4.075849999999999973e+00 2.219829999999999970e+00 5.085600000000000342e+00 3.535390000000000033e+00 2.556760000000000144e+00 2.708060000000000134e+00 3.198209999999999997e+00 1.388169999999999904e+00 4.214200000000000168e-01 1.183380000000000098e+00 1.342100000000000071e+00 6.288520000000000110e+00
3.146079999999999988e+00 -4.861999999999999655e-02 1.075019999999999953e+01 3.346060000000000034e+00 1.544019999999999948e+00 1.638540000000000108e+00 3.111950000000000216e+00 1.338170000000000082e+00 8.669290000000000163e+00 4.187429999999999986e+00 6.731000000000000316e-01 1.271940000000000026e+01 7.985600000000000476e-01 1.068710000000000049e+00 1.025949999999999918e+01 4.404600000000000182e-01 1.286470000000000002e+00 6.070590000000000153e+00 1.459270000000000067e+00 2.953700000000000214e-01 4.054899999999999949e+00 1.699259999999999993e+00 1.172350000000000003e+00 1.266830000000000034e+01 2.739310000000000134e+00 -9.520000000000000684e-03 6.215709999999999624e+00 9.913800000000000390e-01 -2.033300000000000107e-01 8.163470000000000226e+00 3.739259999999999806e+00 1.718420000000000059e+00 3.978130000000000166e+00 1.015879999999999894e+00 1.510869999999999935e+00 1.992709999999999981e+00
2.955070000000000086e+00 9.841699999999999893e-01 2.859690000000000065e+00 2.680140000000000189e+00 2.371210000000000040e+00 1.637500000000000067e-01 2.523719999999999963e+00 9.452099999999999946e-01 7.356049999999999756e+00 1.857010000000000050e+00 9.458400000000000141e-01 5.201730000000000409e+00 3.879890000000000061e+00 1.955259999999999998e+00 4.790060000000000429e+00 -4.499999999999999877e-04 2.407119999999999926e+00 1.241389999999999993e+01 2.759099999999999886e-01 2.554139999999999855e+00 7.789500000000000313e+00 6.646800000000000486e-01 5.704200000000000381e-01 6.592799999999999772e-01 1.948709999999999942e+00 2.204279999999999795e+00 9.542149999999999466e+00 7.373000000000000387e-02 2.416669999999999874e+00 9.979269999999999641e+00 2.199800000000000200e+00 1.397000000000000020e+00 1.208530000000000015e+01 1.027889999999999970e+00 2.356409999999999894e+00 3.101230000000000153e+00
3.885860000000000092e+00 1.070240000000000080e+00 9.496750000000000469e+00 3.032799999999999940e+00 3.667799999999999949e-01 1.858020000000000005e+00 2.743419999999999970e+00 1.845690000000000053e+00 1.829960000000000164e+01 9.462699999999999445e-01 1.300450000000000106e+00 1.402399999999999913e+01 1.947510000000000074e+00 1.485209999999999919e+00 9.613089999999999691e+00 1.043400000000000022e-01 1.657189999999999941e+00 4.243960000000000399e+00 1.723610000000000086e+00 1.648000000000000020e-01 1.617780000000000129e+01 3.488220000000000098e+00 1.756429999999999936e+00 1.429850000000000065e+01 5.398300000000000320e-01 -4.397199999999999998e-01 1.857000000000000028e+01 4.335560000000000080e+00 5.042499999999999760e-01 1.622490000000000165e+01 3.875700000000000256e-01 2.624900000000000011e-01 1.131770000000000032e+01 2.527899999999999814e+00 1.753579999999999917e+00 4.271729999999999805e+00
1.898220000000000018e+00 1.276319999999999899e+00 4.475150000000000183e+00 1.232739999999999947e+00 -1.314299999999999913e-01 1.955399999999999849e+01 4.232709999999999972e+00 1.827399999999999913e+00 1.097650000000000015e+00 1.992899999999999894e+00 1.271069999999999922e+00 9.071559999999999846e+00 5.106699999999999573e-01 1.737599999999999978e-01 7.821679999999999744e+00 3.624610000000000110e+00 -1.054100000000000037e-01 9.975669999999999149e+00 3.609280000000000044e+00 2.381199999999999983e-01 3.194420000000000037e+00 1.225600000000000023e-01 1.731999999999999859e-02 5.887920000000000265e+00 1.381180000000000074e+00 8.966199999999999726e-01 1.743769999999999953e+01 3.215450000000000141e+00 2.205070000000000086e+00 1.848089999999999833e+01 1.540110000000000090e+00 1.533309999999999951e+00 2.350800000000000001e+00 2.529469999999999885e+00 2.238519999999999843e+00 7.177940000000000431e+00
1.909850000000000048e+00 1.097509999999999986e+00 1.429072999999999993e+01 7.110199999999999854e-01 1.204890000000000017e+00 8.051460000000000505e+00 3.406179999999999986e+00 1.266669999999999963e+00 4.060459999999999958e+00 1.324000000000000066e+00 8.837000000000000410e-02 9.805110000000000881e+00 4.143880000000000230e+00 1.473399999999999987e-01 5.878140000000000143e+00 1.960269999999999957e+00 1.328559999999999963e+00 6.094540000000000290e+00 1.524100000000000010e+00 2.335999999999999854e+00 4.038689999999999891e+00 -1.257999999999999952e-01 5.525000000000000050e-02 1.429349999999999987e+01 6.308399999999999563e-01 1.130430000000000046e+00 1.998729999999999896e+00 2.903999999999999915e+00 1.492100000000000093e-01 2.041990000000000194e+00 3.365139999999999798e+00 1.091360000000000108e+00 9.883559999999999235e+00 2.717459999999999987e+00 1.062300000000000050e-01 7.847010000000000041e+00
4.266779999999999795e+00 1.423710000000000031e+00 9.107979999999999521e+00 2.489580000000000126e+00 2.199289999999999967e+00 1.160360000000000014e+01 1.882830000000000004e+00 1.226939999999999920e+00 9.440590000000000259e+00 1.806799999999999962e+00 3.295500000000000096e-01 3.711139999999999883e+00 3.798699999999999855e-01 2.549139999999999961e+00 1.095700000000000074e+01 2.738809999999999967e+00 2.567599999999999882e-01 7.582950000000000301e+00 1.712530000000000108e+00 1.113999999999999990e-01 2.159759999999999991e+01 4.144339999999999691e+00 1.672420000000000018e+00 2.224889999999999901e+01 3.479750000000000121e+00 1.067970000000000086e+00 4.989840000000000053e+00 3.885699999999999932e+00 2.403249999999999886e+00 2.696309999999999985e+00 1.634819999999999940e+00 2.629199999999999982e+00 1.105639999999999956e+00 1.178579999999999961e+00 2.262080000000000091e+00 6.074329999999999785e+00
8.598999999999999977e-01 1.726189999999999891e+00 6.733799999999999564e+00 3.823269999999999946e+00 1.009139999999999926e+00 2.367570000000000174e+00 9.108800000000000230e-01 1.498559999999999892e+00 8.695859999999999701e+00 2.325660000000000061e+00 1.494220000000000104e+00 2.595700000000000229e-01 1.696190000000000087e+00 2.599899999999999878e+00 2.071730000000000071e+00 4.539799999999999613e+00 2.150299999999999989e-01 5.453799999999999759e-01 1.715039999999999898e+00 6.863399999999999501e-01 4.906229999999999869e+00 2.198949999999999960e+00 2.219110000000000138e+00 1.161609999999999943e+01 3.936230000000000118e+00 1.174760000000000026e+00 4.419929999999999914e+00 3.359799999999999898e+00 2.294890000000000096e+00 6.364589999999999748e+00 4.326800000000000423e+00 2.453980000000000050e+00 1.109029999999999916e+01 2.852770000000000028e+00 6.515499999999999625e-01 9.152440000000000353e+00
2.612740000000000062e+00 2.439329999999999998e+00 1.008680000000000021e+01 2.270929999999999893e+00 2.509600000000000164e-01 1.208820000000000050e+01 3.669100000000000139e-01 3.770399999999999863e-01 7.515659999999999563e+00 2.035179999999999989e+00 9.301800000000000068e-01 1.291469999999999896e+00 1.069120000000000070e+00 2.831799999999999873e-01 1.418239999999999945e+01 1.372940000000000049e+00 2.003810000000000091e+00 5.369250000000000078e+00 1.203540000000000054e+00 1.187000000000000055e+00 2.150420000000000087e+01 6.926999999999999824e-01 6.606999999999999540e-01 3.422200000000000131e+00 3.955330000000000013e+00 1.927519999999999900e+00 1.774540000000000006e+00 3.434709999999999930e+00 2.298649999999999860e+00 4.428840000000000110e+00 3.514390000000000125e+00 1.845050000000000079e+00 2.174149999999999849e+01 2.442270000000000163e+00 1.284669999999999979e+00 7.710869999999999891e+00
3.498699999999999921e+00 2.233270000000000088e+00 1.865149999999999864e+01 4.567560000000000286e+00 2.096169999999999867e+00 1.694069999999999965e+00 4.138160000000000061e+00 3.643399999999999972e-01 9.010699999999999932e+00 2.053279999999999994e+00 1.783420000000000005e+00 8.901870000000000616e+00 3.553090000000000082e+00 1.414530000000000065e+00 6.933399999999999785e+00 8.017600000000000282e-01 2.412859999999999783e+00 1.122320000000000029e+01 1.744250000000000078e+00 9.524700000000000388e-01 1.388269999999999893e+00 4.232540000000000191e+00 6.023300000000000320e-01 3.944069999999999965e+00 1.975970000000000004e+00 1.925200000000000022e+00 3.844860000000000166e+00 1.557849999999999957e+00 9.025699999999999834e-01 1.808630000000000138e+01 1.334170000000000078e+00 1.740700000000000025e-01 6.822630000000000194e+00 3.127769999999999939e+00 1.061800000000000077e+00 1.097959999999999958e+01
1.549200000000000021e-01 1.257900000000000129e-01 3.028140000000000054e+00 2.577749999999999986e+00 1.916299999999999892e+00 5.885659999999999670e+00 2.365040000000000031e+00 4.598200000000000065e-01 3.744880000000000209e+00 1.029760000000000009e+00 7.638099999999999890e-01 1.125109999999999921e+01 3.529599999999999849e+00 1.707559999999999967e+00 1.362429999999999986e+01 2.262529999999999930e+00 5.421899999999999498e-01 8.408649999999999736e+00 3.416199999999999792e-01 1.808240000000000069e+00 7.184169999999999945e+00 3.859000000000000208e-01 2.008550000000000058e+00 9.449630000000000862e+00 1.282550000000000079e+00 2.554260000000000197e+00 1.358559999999999945e+01 2.871820000000000039e+00 2.173470000000000013e+00 1.143629999999999924e+01 7.517999999999999683e-02 7.430600000000000538e-01 4.948509999999999742e+00 3.855760000000000076e+00 2.293010000000000215e+00 7.672799999999999621e-01
4.783649999999999736e+00 6.157899999999999485e-01 1.252839999999999954e+01 3.757109999999999950e+00 2.363210000000000033e+00 1.013560000000000016e+01 4.424699999999999744e-01 1.174830000000000041e+00 7.484370000000000189e+00 2.914860000000000007e+00 5.217199999999999616e-01 5.825919999999999987e+00 1.143310000000000048e+00 2.245999999999999996e+00 1.789399999999999835e+01 2.082539999999999836e+00 9.227800000000000447e-01 1.203389999999999915e+01 1.736879999999999979e+00 2.355319999999999858e+00 3.540000000000000036e+00 1.535060000000000091e+00 2.279180000000000206e+00 1.190229999999999899e+00 4.161509999999999820e+00 2.573580000000000201e+00 2.198920000000000208e+00 3.180410000000000181e+00 2.769369999999999887e+00 8.024390000000000356e+00 6.572400000000000464e-01 7.534999999999999476e-01 5.151030000000000442e+00 3.926569999999999894e+00 1.723619999999999930e+00 1.991700000000000159e+01
2.967099999999999849e+00 1.975600000000000023e+00 4.871099999999999874e-01 3.579579999999999984e+00 4.908600000000000185e-01 9.096450000000000813e+00 8.350999999999999535e-01 8.861499999999999932e-01 3.538000000000000034e-01 3.119699999999999918e+00 2.896299999999999986e-01 6.943740000000000023e+00 9.110999999999999654e-02 1.880980000000000096e+00 1.542549999999999955e+01 2.376370000000000093e+00 1.009640000000000093e+00 1.657499999999999929e+01 -2.752200000000000202e-01 -2.605999999999999983e-02 1.813109999999999999e+01 2.164730000000000043e+00 7.023500000000000298e-01 1.136090000000000089e+01 1.108670000000000044e+00 1.525770000000000071e+00 8.552799999999999514e+00 1.073110000000000008e+00 1.656500000000000083e+00 6.643469999999999764e+00 -1.006699999999999956e-01 1.905010000000000092e+00 1.304829999999999934e+01 1.978520000000000056e+00 5.865899999999999448e-01 1.350319999999999965e+01
1.840109999999999912e+00 1.219889999999999919e+00 8.325549999999999784e+00 1.605879999999999974e+00 1.130179999999999962e+00 3.495579999999999909e+00 3.957359999999999989e+00 2.075200000000000156e+00 9.151719999999999189e+00 1.105250000000000066e+00 1.718310000000000004e+00 1.266360000000000063e+01 1.827790000000000026e+00 3.913400000000000212e-01 1.525249999999999950e+01 3.724600000000000133e-01 6.930699999999999639e-01 1.276380000000000070e+00 4.001570000000000071e+00 7.184599999999999875e-01 7.293420000000000236e+00 2.907160000000000188e+00 2.503579999999999917e+00 1.340990000000000038e+01 1.742050000000000098e+00 2.556869999999999976e+00 5.795860000000000234e+00 3.636779999999999902e+00 2.463690000000000158e+00 3.323179999999999801e+00 2.234570000000000167e+00 1.783560000000000034e+00 1.704329999999999901e+00 3.481689999999999952e+00 1.216050000000000075e+00 1.141549999999999976e+01
2.252489999999999881e+00 2.164509999999999934e+00 6.168180000000000440e+00 4.042989999999999640e+00 1.334279999999999911e+00 2.007039999999999935e+00 3.131499999999999950e+00 3.259999999999999704e-02 1.363770000000000060e+01 1.322969999999999979e+00 1.252089999999999925e+00 1.335440000000000005e+01 2.838499999999999801e+00 1.727230000000000043e+00 8.764329999999999288e+00 2.045099999999999973e-01 1.669089999999999963e+00 6.390019999999999811e+00 2.600760000000000183e+00 1.478690000000000060e+00 1.139409999999999989e+01 2.261089999999999822e+00 5.911399999999999988e-01 3.943090000000000206e+00 1.347899999999999932e-01 2.197400000000000020e+00 4.550539999999999807e+00 2.811000000000000165e-01 1.176339999999999941e+00 1.023450000000000060e+01 7.990300000000000180e-01 1.572900000000000131e-01 8.184499999999999886e+00 1.746159999999999934e+00 2.036140000000000061e+00 1.640430000000000055e+00
1.077749999999999986e+00 1.125999999999999890e+00 8.798600000000000421e+00 2.464669999999999916e+00 1.289800000000000058e+00 1.634540000000000104e+00 4.558919999999999639e+00 1.382609999999999895e+00 2.650409999999999933e+00 1.606160000000000032e+00 2.934300000000000241e-01 1.094599999999999973e+01 3.429600000000000204e+00 6.286500000000000421e-01 8.474199999999999733e+00 2.202949999999999964e+00 1.318650000000000100e+00 3.856829999999999981e+00 3.907039999999999846e+00 3.767199999999999993e-01 1.749699999999999989e+01 4.045309999999999739e+00 1.547949999999999937e+00 1.106259999999999977e+01 1.972339999999999982e+00 1.955559999999999965e+00 1.847929999999999851e+01 4.633210000000000051e+00 3.217700000000000005e-01 4.485479999999999912e+00 1.032480000000000064e+00 1.914570000000000105e+00 6.581430000000000113e+00 3.313369999999999926e+00 5.356400000000000050e-01 6.568670000000000009e+00
1.405920000000000059e+00 1.474499999999999977e-01 1.473559999999999981e+01 3.350490000000000190e+00 6.655900000000000150e-01 1.201970000000000027e+01 4.062520000000000131e+00 2.644050000000000011e+00 5.729420000000000179e+00 1.022620000000000084e+00 2.592449999999999921e+00 7.466400000000000148e+00 1.175540000000000029e+00 1.219289999999999985e+00 9.350479999999999237e+00 3.607060000000000155e+00 1.091400000000000009e-01 1.014589999999999925e+01 1.799960000000000004e+00 6.084399999999999809e-01 5.254649999999999821e+00 2.302599999999999925e-01 1.741330000000000044e+00 1.298709999999999987e+01 3.245159999999999823e+00 1.801239999999999952e+00 1.464209999999999923e+01 3.667479999999999851e+00 1.117229999999999945e+00 8.180020000000000735e+00 1.761689999999999978e+00 2.050079999999999902e+00 3.015400000000000080e+00 4.216219999999999857e+00 8.548799999999999732e-01 2.617440000000000211e+00
2.399600000000000066e-01 2.360529999999999795e+00 5.143810000000000215e+00 3.432720000000000216e+00 1.016469999999999985e+00 3.286290000000000155e+00 2.610230000000000050e+00 2.336370000000000058e+00 1.542200000000000015e+00 2.244499999999999940e+00 2.329400000000000137e+00 8.599199999999999733e+00 1.220029999999999948e+00 2.624929999999999986e+00 1.207360000000000078e+01 9.916999999999999427e-02 6.157200000000000450e-01 9.289139999999999731e+00 3.210700000000000220e-01 1.864279999999999937e+00 7.273920000000000385e+00 2.650609999999999911e+00 1.793460000000000054e+00 5.571030000000000371e+00 1.114400000000000057e+00 1.256500000000000117e-01 3.314319999999999933e+00 6.865099999999999536e-01 9.611399999999999944e-01 5.625000000000000139e-02 3.235700000000000021e+00 1.127350000000000074e+00 1.154020000000000046e+01 2.295500000000000096e+00 1.646430000000000060e+00 2.047459999999999880e+01
1.401980000000000004e+00 1.437920000000000087e+00 2.147190000000000154e+01 4.503610000000000113e+00 2.066110000000000113e+00 2.875020000000000131e+00 2.055979999999999919e+00 2.020699999999999996e-01 2.989959999999999951e+00 3.453920000000000101e+00 1.674469999999999903e+00 8.085539999999999949e+00 9.852600000000000247e-01 1.849010000000000042e+00 5.457279999999999909e+00 3.652229999999999865e+00 1.606559999999999988e+00 2.105839999999999890e+01 1.697370000000000045e+00 1.909480000000000066e+00 1.183500000000000085e+01 1.054319999999999924e+00 2.368999999999999995e-01 7.571690000000000254e+00 2.685369999999999813e+00 4.985499999999999932e-01 1.296650000000000080e+00 3.540760000000000129e+00 3.276600000000000068e-01 4.943200000000000038e+00 2.730379999999999807e+00 4.229600000000000026e-01 1.024619999999999997e+01 5.279999999999999971e-02 2.392539999999999889e+00 1.030979999999999919e+01
3.021910000000000096e+00 2.185119999999999951e+00 1.498719999999999963e+01 3.790290000000000159e+00 1.548359999999999959e+00 1.092109999999999914e+01 2.655100000000000016e+00 5.809100000000000374e-01 1.293730000000000047e+01 3.161220000000000141e+00 2.343820000000000014e+00 4.469759999999999955e+00 4.146989999999999732e+00 9.797700000000000298e-01 2.245589999999999975e+00 4.554529999999999745e+00 5.957599999999999563e-01 6.579399999999999693e+00 4.893839999999999968e+00 2.274160000000000181e+00 1.278200000000000003e+01 1.597310000000000008e+00 1.276029999999999998e+00 1.085960000000000036e+01 4.196329999999999671e+00 2.461300000000000043e+00 3.085399999999999809e-01 8.453699999999999548e-01 1.268979999999999997e+00 1.543340000000000067e+01 1.526310000000000056e+00 2.268299999999999983e+00 1.353220000000000089e+00 5.885700000000000376e-01 2.302049999999999930e+00 8.102610000000000312e+00
3.950499999999999901e+00 2.007449999999999957e+00 8.692090000000000316e+00 1.107120000000000104e+00 1.733980000000000077e+00 5.115759999999999863e+00 -2.672000000000000069e-02 2.838410000000000100e+00 1.112969999999999970e+01 2.642090000000000050e+00 2.164610000000000145e+00 2.382299999999999973e-01 9.490699999999999692e-01 1.336109999999999909e+00 7.257990000000000386e+00 3.455950000000000077e+00 2.789400000000000213e-01 4.238470000000000404e+00 1.207759999999999945e+00 6.167300000000000004e-01 1.962689999999999912e+01 2.447259999999999991e+00 1.399969999999999937e+00 1.130879999999999974e+01 3.728590000000000071e+00 1.793840000000000101e+00 2.072409999999999997e+01 1.828540000000000054e+00 3.696699999999999986e-01 9.435299999999999798e+00 7.555600000000000094e-01 5.572500000000000231e-01 1.181950000000000056e+00 2.761509999999999909e+00 1.689799999999999913e-01 7.020579999999999821e+00