-4.952649278999999893e+01
-4.808220476000000332e+01
-4.944173425000000321e+01
-4.896088607000000081e+01
-4.887166364000000129e+01
-4.926700510999999949e+01
-4.888819999999999766e+01
-4.961863917000000157e+01
-5.024653672000000171e+01
-4.957088547000000034e+01
-5.138369927000000104e+01
-4.936835971000000001e+01
-5.080896529999999700e+01
-4.914108353000000307e+01
-5.023706817000000058e+01
-4.967126011999999946e+01
-5.099745572999999865e+01
-4.896935933999999691e+01
-4.992288207000000000e+01
-4.981411830999999779e+01
-5.030386216000000132e+01
-4.904510109999999656e+01
-4.933167576999999682e+01
-4.747891936999999984e+01
-5.028686788000000263e+01
-4.989504625000000004e+01
-5.020505296999999700e+01
-4.773868082999999984e+01
-4.816238192000000140e+01
-4.862988580999999755e+01
-4.672507664999999832e+01
-5.106058213000000023e+01
