-4.922070831999999996e+01
-4.907679274000000191e+01
-5.141022054999999824e+01
-4.921334696000000264e+01
-5.099441394000000116e+01
-5.282751033000000263e+01
-4.965843703000000176e+01
-4.821412284000000170e+01
-5.237536273999999992e+01
-4.851240822999999835e+01
-5.293762501999999870e+01
-4.987539342000000175e+01
-4.803849517999999819e+01
-5.115792574999999687e+01
-5.082983902000000143e+01
-4.941165877000000251e+01
-4.997761962999999952e+01
-5.001448008999999928e+01
-5.025378252000000145e+01
-4.966264630999999952e+01
-4.959073481000000072e+01
-4.867302234999999655e+01
-5.133818095000000170e+01
-5.149409076999999968e+01
