1.240240000000000009e+00 3.685700000000000087e-01 5.045919999999999739e+00 1.452609999999999957e+00 4.991000000000000297e-02 1.486869999999999914e+00 1.198620000000000019e+00 3.410530000000000062e+00 7.546179999999999666e+00 1.489500000000000046e+00 1.932360000000000078e+00 3.489409999999999901e+00 1.538990000000000080e+00 2.100369999999999848e+00 9.553779999999999717e+00 2.870260000000000034e+00 1.632800000000000085e-01 1.888380000000000081e+01 1.163219999999999921e+00 2.073409999999999975e+00 1.863329999999999842e+01 2.820650000000000102e+00 1.745299999999999907e-01 9.201700000000000657e+00 2.942299999999999915e+00 1.682800000000000129e-01 3.360920000000000130e+00 2.664689999999999781e+00 1.995270000000000099e+00 7.731020000000000003e+00 3.166139999999999954e+00 2.171289999999999942e+00 5.395970000000000155e+00 3.117399999999999949e+00 2.018209999999999837e+00 1.115969999999999906e+00
3.093729999999999869e+00 1.753139999999999921e+00 1.846079999999999943e+00 1.554969999999999963e+00 1.668479999999999963e+00 3.964539999999999953e+00 1.438739999999999908e+00 3.499249999999999972e+00 1.650249999999999995e+00 2.961799999999999988e-01 3.443150000000000155e+00 7.694560000000000066e+00 1.655629999999999935e+00 1.596360000000000001e+00 4.920999999999999680e-02 1.112800000000000039e-01 2.060970000000000191e+00 5.705129999999999590e+00 1.810659999999999936e+00 2.111639999999999961e+00 7.637550000000000061e+00 1.501300000000000134e-01 2.072060000000000013e+00 9.733660000000000423e+00 -7.778000000000000191e-02 3.624820000000000153e+00 3.624239999999999906e+00 3.457599999999999785e+00 3.464789999999999814e+00 1.091599999999999931e-01 2.154659999999999798e+00 1.759100000000000108e-01 9.304890000000000327e+00 1.914390000000000036e+00 3.640070000000000139e+00 5.695750000000000313e+00
2.947700000000000209e+00 1.098170000000000091e+00 5.353900000000000325e+00 2.267759999999999998e+00 2.075410000000000199e+00 7.770999999999999908e+00 2.390699999999999825e+00 2.698510000000000186e+00 2.983379999999999921e+00 7.732799999999999674e-01 9.669499999999999762e-01 2.603400000000000158e+00 6.343499999999999694e-01 2.622440000000000104e+00 1.182520000000000016e+00 6.092400000000000038e-01 5.722699999999999454e-01 1.504490000000000016e+01 2.534359999999999946e+00 2.449500000000000011e-01 1.000919999999999987e+01 1.213999999999999968e+00 2.924409999999999954e+00 4.989749999999999908e+00 7.134500000000000286e-01 2.075419999999999821e+00 9.896760000000000446e+00 2.282919999999999838e+00 2.348360000000000003e+00 1.492099999999999937e+01 6.402600000000000513e-01 3.461099999999999732e-01 7.842880000000000074e+00 2.366960000000000175e+00 1.051779999999999937e+00 1.275320000000000009e+00
1.726909999999999945e+00 3.848110000000000142e+00 5.516399999999999970e+00 -7.049999999999999843e-03 1.114200000000000051e-01 7.200639999999999930e+00 1.781130000000000102e+00 1.675189999999999957e+00 3.395299999999999985e-01 2.079940000000000122e+00 2.167829999999999924e+00 7.416319999999999801e+00 1.568230000000000013e+00 2.217080000000000162e+00 4.123129999999999740e+00 3.676079999999999792e+00 1.700479999999999992e+00 2.173610000000000042e+00 2.735000000000000209e-01 1.871899999999999897e+00 9.100300000000000722e+00 2.245060000000000056e+00 3.836949999999999861e+00 9.042030000000000456e+00 3.427109999999999879e+00 6.559700000000000530e-01 3.953390000000000182e+00 3.803479999999999972e+00 3.625649999999999817e+00 7.053500000000000325e-01 -3.320000000000000034e-02 1.977190000000000003e+00 5.944119999999999848e+00 1.703470000000000040e+00 1.065299999999999997e-01 2.281519999999999992e+00
2.986800000000000010e-01 1.486609999999999987e+00 9.203139999999999432e+00 8.835399999999999920e-01 1.326149999999999940e+00 1.890429999999999922e+01 3.398149999999999782e+00 1.852459999999999996e+00 5.331649999999999778e+00 2.044399999999999995e+00 3.229999999999999982e+00 9.158910000000000551e+00 1.751989999999999936e+00 2.751299999999999857e-01 5.371100000000000207e+00 1.337739999999999929e+00 3.499220000000000219e+00 1.823720000000000008e+00 1.956779999999999964e+00 1.386770000000000058e+00 7.647859999999999658e+00 2.689709999999999823e+00 3.084060000000000024e+00 1.878770000000000095e+01 3.295799999999999841e+00 3.428980000000000139e+00 7.240440000000000431e+00 1.510650000000000048e+00 2.066959999999999908e+00 3.652400000000000091e+00 3.271739999999999871e+00 9.114999999999999492e-02 3.470439999999999969e+00 3.273260000000000058e+00 1.658539999999999903e+00 1.892589999999999995e+00
2.492700000000000138e+00 1.644760000000000000e+00 1.936700000000000088e-01 3.464539999999999953e+00 1.700280000000000014e+00 9.421879999999999811e+00 3.731100000000000083e+00 1.668879999999999919e+00 5.942660000000000053e+00 1.677920000000000078e+00 2.142600000000000060e-01 2.412490000000000023e+00 1.443170000000000064e+00 2.048239999999999839e+00 4.136180000000000412e+00 2.490900000000000059e-01 3.591050000000000075e+00 7.564189999999999969e+00 -7.860000000000000667e-03 4.366900000000000226e-01 3.874120000000000008e+00 1.728329999999999922e+00 -3.039000000000000035e-02 9.243579999999999686e+00 1.814470000000000027e+00 1.661249999999999893e+00 7.559929999999999595e+00 2.580899999999999861e-01 3.515499999999999847e+00 4.611700000000000244e-01 1.801649999999999974e+00 2.979499999999999926e-01 5.799150000000000027e+00 3.557199999999999918e+00 1.788459999999999939e+00 2.287049999999999805e+00
1.640849999999999920e+00 1.720069999999999988e+00 9.729499999999999815e-01 8.065999999999999559e-02 2.244289999999999896e+00 8.765219999999999345e+00 3.697989999999999888e+00 1.790270000000000028e+00 5.684190000000000076e+00 1.673959999999999892e+00 3.672340000000000160e+00 2.515089999999999826e+00 1.882719999999999949e+00 1.683240000000000069e+00 4.088860000000000383e+00 2.660600000000000187e-01 1.514399999999999913e-01 7.348410000000000331e+00 3.745890000000000164e+00 3.595800000000000107e+00 4.130049999999999777e+00 2.143969999999999931e+00 3.240500000000000047e-01 8.961809999999999832e+00 1.913119999999999932e+00 2.117859999999999854e+00 7.259249999999999758e+00 3.526040000000000063e+00 3.543140000000000178e+00 8.877500000000000391e-01 1.848589999999999955e+00 3.465110000000000134e+00 5.764910000000000423e+00 3.572379999999999889e+00 1.790480000000000071e+00 2.517580000000000151e+00
3.171819999999999862e+00 1.299400000000000110e+00 1.361990000000000034e+00 2.774960000000000093e+00 3.090749999999999886e+00 7.691559999999999953e+00 1.469389999999999974e+00 2.959499999999999797e+00 5.360970000000000013e+00 1.327139999999999986e+00 1.493060000000000054e+00 2.916339999999999932e+00 1.325490000000000057e+00 1.595050000000000079e+00 1.444720000000000049e+01 2.888020000000000032e+00 1.197910000000000030e+00 9.410119999999999152e+00 3.107190000000000119e+00 1.049320000000000030e+00 5.118350000000000399e+00 1.172770000000000090e+00 2.991159999999999819e+00 1.273760000000000003e+00 9.983400000000000052e-01 2.884339999999999904e+00 9.547869999999999635e+00 2.905980000000000008e+00 3.272470000000000212e+00 1.459200000000000053e+01 3.284260000000000179e+00 3.046969999999999956e+00 3.350029999999999841e+00 6.997499999999999831e-01 1.693670000000000009e+00 7.356449999999999712e+00
2.291269999999999918e+00 3.634650000000000158e+00 1.714709999999999956e+00 1.743759999999999977e+00 7.113999999999999491e-02 9.298140000000000072e+00 3.711850000000000094e+00 1.735149999999999970e+00 5.732479999999999798e+00 3.145600000000000063e-01 3.467420000000000169e+00 1.956900000000000028e-01 2.371729999999999894e+00 1.709559999999999969e+00 2.372700000000000087e-01 1.957910000000000039e+00 6.669999999999999714e-03 5.674640000000000128e+00 1.744240000000000013e+00 2.011979999999999880e+00 7.640729999999999578e+00 1.572800000000000031e-01 8.659000000000000030e-02 3.952220000000000066e+00 3.736899999999999888e+00 1.908579999999999943e+00 9.183170000000000499e+00 1.964579999999999993e+00 1.859250000000000069e+00 3.768170000000000019e+00 3.761270000000000113e+00 3.720410000000000217e+00 7.406270000000000131e+00 3.647539999999999782e+00 2.107130000000000170e+00 2.149840000000000195e+00
3.546949999999999825e+00 2.138770000000000060e+00 9.300860000000000127e+00 1.931519999999999904e+00 1.666099999999999914e+00 1.762340000000000018e+01 -7.539999999999999827e-03 1.502289999999999903e+00 9.384900000000000464e-01 6.843099999999999739e-01 4.636700000000000266e-01 7.608349999999999724e+00 3.398159999999999847e+00 3.574289999999999967e+00 1.762099999999999866e+01 1.550100000000000033e+00 2.652100000000000013e-01 5.454439999999999955e+00 1.954939999999999900e+00 2.040480000000000071e+00 7.602949999999999875e+00 1.805520000000000014e+00 2.457499999999999962e-01 9.591540000000000177e+00 1.678020000000000067e+00 1.515349999999999975e+00 3.535750000000000171e+00 3.403000000000000025e+00 2.005230000000000068e+00 5.871979999999999755e+00 1.426000000000000011e-02 3.382600000000000051e+00 3.563489999999999824e+00 1.698069999999999968e+00 3.497990000000000155e+00 1.713200000000000056e+00
2.112929999999999975e+00 1.924840000000000106e+00 4.158710000000000129e+00 2.279160000000000075e+00 1.963249999999999940e+00 8.917100000000000026e-01 3.139700000000000268e-01 2.116480000000000139e+00 5.776250000000000107e+00 3.547890000000000210e+00 2.655940000000000190e+00 9.166330000000000311e+00 2.166399999999999881e+00 3.787729999999999819e+00 5.706089999999999662e+00 4.461499999999999910e-01 1.855140000000000011e+00 2.413600000000000190e+00 2.431300000000000128e-01 2.037799999999999889e-01 7.600099999999999634e-01 1.814510000000000067e+00 2.371099999999999874e-01 2.383490000000000109e+00 1.628830000000000000e+00 2.480999999999999872e-01 8.807909999999999684e+00 8.876000000000000556e-02 3.316520000000000135e+00 4.012290000000000134e+00 1.824799999999999978e+00 2.120130000000000070e+00 7.522249999999999659e+00 1.801800000000000068e-01 1.269000000000000128e-01 7.031579999999999941e+00
2.748270000000000213e+00 1.749779999999999891e+00 7.696159999999999890e+00 2.474439999999999973e+00 3.319280000000000008e+00 9.591499999999999915e+00 2.284629999999999939e+00 -1.400000000000000029e-02 5.731779999999999653e+00 3.521479999999999944e+00 3.394940000000000069e+00 3.620789999999999953e+00 1.704210000000000003e+00 1.665480000000000071e+00 3.602629999999999999e+00 1.523230000000000084e+00 3.575149999999999828e+00 1.773369999999999891e+00 7.881500000000000172e-01 1.872300000000000075e+00 9.277739999999999654e+00 3.105399999999999827e-01 1.656299999999999994e-01 7.717419999999999725e+00 3.308359999999999967e+00 1.729710000000000081e+00 1.730539999999999967e+00 3.869260000000000144e+00 2.982000000000000206e+00 2.020179999999999865e+01 1.535630000000000051e+00 1.505230000000000068e+00 8.154999999999999749e-02 2.168499999999999872e-01 1.510610000000000008e+00 5.544679999999999609e+00
5.124999999999999695e-02 1.774860000000000104e+00 1.098689999999999944e+00 2.455229999999999801e+00 2.386039999999999939e+00 7.555369999999999919e+00 1.967999999999999972e+00 3.260110000000000063e+00 5.412650000000000183e+00 1.850260000000000016e+00 3.989000000000000185e-02 9.564629999999999299e+00 1.962490000000000068e+00 3.682929999999999815e+00 1.721700000000000008e+00 2.307800000000000129e-01 1.579000000000000126e-01 1.564230000000000054e+01 1.489700000000000024e+00 2.107790000000000052e+00 3.352139999999999898e+00 3.524099999999999788e+00 1.284470000000000001e+00 5.597520000000000273e+00 3.776510000000000034e+00 1.985919999999999908e+00 9.579539999999999722e+00 2.076319999999999943e+00 1.814889999999999892e+00 1.553819999999999979e+01 2.141899999999999915e-01 1.281799999999999884e-01 7.572829999999999728e+00 3.684029999999999916e+00 2.954600000000000004e-01 3.143320000000000114e+00
2.214179999999999815e+00 1.963910000000000045e+00 3.951449999999999907e+00 2.197239999999999860e+00 2.227040000000000131e+00 7.891700000000000381e-01 1.028300000000000047e-01 1.809180000000000010e+00 5.639420000000000321e+00 3.648690000000000211e+00 2.320489999999999942e+00 9.021470000000000766e+00 1.960919999999999996e+00 1.730700000000000016e-01 5.597800000000000331e+00 8.694000000000000339e-02 2.018740000000000201e+00 2.357229999999999936e+00 3.610300000000000176e-01 3.711440000000000072e+00 9.307999999999999607e-01 2.517819999999999947e+00 3.828089999999999993e+00 2.420850000000000168e+00 1.781590000000000007e+00 3.982899999999999885e+00 9.151630000000000820e+00 2.453200000000000103e-01 5.078300000000000036e-01 3.999610000000000110e+00 1.624570000000000070e+00 2.004859999999999864e+00 7.452149999999999608e+00 3.757050000000000001e+00 3.914029999999999898e+00 7.318660000000000387e+00
3.337829999999999853e+00 2.291650000000000187e+00 1.849969999999999892e+00 1.324629999999999974e+00 2.069599999999999884e+00 1.529240000000000066e+01 -1.443500000000000061e-01 1.912099999999999911e+00 5.519499999999999851e+00 1.799879999999999924e+00 2.339519999999999822e+00 3.609399999999999942e+00 1.805339999999999945e+00 2.610999999999999988e-01 5.731900000000000439e+00 1.802899999999999947e+00 2.184870000000000090e+00 7.417539999999999800e+00 1.751870000000000038e+00 3.210899999999999865e-01 1.733649999999999913e+00 3.463070000000000093e+00 3.470029999999999948e+00 7.561340000000000394e+00 1.944439999999999946e+00 3.632730000000000015e+00 9.211339999999999861e+00 -6.474000000000000588e-02 1.463419999999999943e+00 8.903980000000000672e+00 -7.427000000000000268e-02 4.170400000000000218e-01 3.654250000000000220e+00 3.275710000000000122e+00 6.339599999999999680e-01 1.549569999999999936e+01
3.689490000000000158e+00 2.181999999999999912e-02 7.543140000000000178e+00 1.911289999999999933e+00 1.938029999999999919e+00 4.019250000000000433e+00 2.175030000000000019e+00 1.629829999999999890e+00 2.195499999999999952e-01 1.920809999999999906e+00 1.098100000000000048e-01 5.557450000000000223e+00 1.732909999999999950e+00 -2.904999999999999943e-02 9.401379999999999626e+00 3.921110000000000095e+00 1.701719999999999899e+00 9.531420000000000670e+00 3.302899999999999725e-01 -2.870000000000000155e-03 3.787409999999999943e+00 2.112100000000000088e-01 1.933300000000000018e+00 5.854709999999999859e+00 1.856810000000000072e+00 3.373629999999999907e+00 1.780059999999999976e+00 6.645499999999999741e-01 3.212629999999999875e+00 1.952459999999999951e+01 2.105719999999999814e+00 1.665399999999999991e+00 7.720340000000000202e+00 2.423500000000000099e-01 2.058429999999999982e+00 1.911480000000000068e+00
1.695100000000000051e+00 3.654279999999999973e+00 5.653629999999999711e+00 1.925800000000000012e-01 1.889930000000000110e+00 1.955600000000000005e+00 2.107139999999999791e+00 1.899219999999999908e+00 2.760400000000000076e-01 3.785989999999999966e+00 1.436000000000000054e-01 7.733670000000000044e+00 1.461880000000000068e+00 2.266010000000000080e+00 7.586960000000000370e+00 1.939299999999999913e-01 1.879399999999999959e-01 1.045999999999999985e-01 2.059149999999999814e+00 1.593299999999999939e+00 3.713070000000000093e+00 2.148249999999999993e+00 3.678850000000000176e+00 9.318400000000000460e+00 3.593900000000000095e+00 1.819819999999999993e+00 5.654340000000000366e+00 4.334299999999999820e-01 1.945619999999999905e+00 9.624610000000000554e+00 1.076099999999999973e-01 6.067999999999999783e-02 3.843669999999999920e+00 2.144509999999999916e+00 3.645319999999999894e+00 1.891219999999999901e+00
2.033290000000000042e+00 3.872739999999999849e+00 5.515340000000000131e+00 1.308300000000000018e-01 3.815329999999999888e+00 7.033079999999999998e+00 1.816500000000000004e+00 2.021510000000000140e+00 8.894100000000000339e-01 1.864400000000000057e+00 2.222739999999999938e+00 7.131619999999999848e+00 1.779549999999999965e+00 2.083340000000000192e+00 4.054929999999999701e+00 3.695399999999999796e+00 1.959060000000000024e+00 2.503319999999999990e+00 -5.269999999999999685e-02 1.711940000000000017e+00 8.664059999999999206e+00 1.767160000000000064e+00 2.198299999999999976e-01 8.708489999999999398e+00 1.649400000000000033e-01 1.131899999999999989e-01 3.996570000000000178e+00 3.705670000000000019e+00 3.873149999999999871e+00 1.265759999999999996e+00 3.720829999999999860e+00 1.712059999999999915e+00 5.480900000000000105e+00 1.618829999999999991e+00 1.894000000000000128e-01 2.552900000000000169e+00
1.652530000000000054e+00 1.463330000000000020e+00 7.446100000000000385e+00 1.897489999999999899e+00 -1.341600000000000015e-01 8.925860000000000127e+00 2.012379999999999836e+00 3.926000000000000323e-02 5.532259999999999955e+00 3.753569999999999851e+00 3.467010000000000147e+00 3.804889999999999883e+00 1.944379999999999997e+00 1.790180000000000105e+00 3.937769999999999992e+00 2.370839999999999836e+00 3.507760000000000211e+00 1.920309999999999961e+00 3.302410000000000068e+00 1.340419999999999945e+00 9.100640000000000285e+00 3.670020000000000060e+00 3.299479999999999968e+00 7.636479999999999713e+00 3.565499999999999781e-01 1.772119999999999918e+00 2.156620000000000203e+00 3.201399999999999801e-01 2.730199999999999849e-01 2.303499999999999992e-01 2.818909999999999805e+00 1.580410000000000093e+00 2.021420000000000172e+01 3.821130000000000138e+00 1.433939999999999992e+00 5.664419999999999789e+00
