-3.871973856999999697e+01
-3.944475950000000353e+01
-3.883955205000000177e+01
-3.928221205999999910e+01
-4.035504036999999755e+01
-3.867260413000000341e+01
-4.022279570999999976e+01
-3.955925771999999796e+01
-4.033859100000000097e+01
-3.901361121000000054e+01
-3.818139608999999979e+01
-3.983858212999999893e+01
-3.838367062999999746e+01
-3.908355521000000010e+01
-3.924383757999999744e+01
-3.993286126999999652e+01
-4.022837601999999890e+01
-3.957575820999999650e+01
-3.940396571000000137e+01
