5.802770000000000428e-01 -9.377539999999999765e-01 1.833812999999999915e+00 -9.242120000000000335e-01 1.131996000000000002e+00 -4.059090000000000198e-01 -2.509828000000000170e+00 3.088156000000000123e+00 -1.499528999999999890e+00 -9.431540000000000479e-01 1.273066000000000031e+00 -1.586561000000000110e+00 -3.104674000000000156e+00 -1.229165000000000063e+00 2.192620999999999931e+00 -3.627070000000000016e-01 2.167379999999999862e-01 -1.714999999999999858e-02 1.447489999999999888e-01 -7.205850000000000311e-01 4.094499999999999806e-01 1.930528999999999940e+00 1.345286999999999900e+00 1.280496999999999996e+00 1.480393999999999988e+00 -2.253999999999999893e-01 -6.826750000000000318e-01 3.477177000000000184e+00 -3.385534999999999961e+00 -2.214640999999999860e+00 -5.234229999999999716e-01 1.952200000000000116e-02 8.910800000000000665e-02 7.548709999999999587e-01 -5.763270000000000337e-01 6.009769999999999834e-01
1.396007999999999916e+00 -4.319209999999999994e-01 8.481440000000000090e-01 1.235217999999999927e+00 4.250099999999999989e-01 -1.172431000000000001e+00 6.321799999999999642e-02 9.321100000000000219e-02 9.051679999999999726e-01 -3.611435000000000173e+00 3.605844999999999967e+00 1.292540000000000078e-01 -8.003850000000000131e-01 1.607959999999999945e-01 -6.306629999999999736e-01 -1.220841000000000065e+00 -9.004830000000000334e-01 3.651929999999999898e-01 3.505590999999999902e+00 -3.520801000000000069e+00 -2.303300000000000139e-02 4.995499999999999940e-02 -3.180930000000000146e-01 -6.587520000000000042e-01 -8.638749999999999485e-01 -2.390309999999999935e-01 3.044620000000000104e-01 -2.380359999999999976e-01 1.959950000000000025e-01 -2.491520000000000123e-01 8.765900000000000081e-02 2.898939999999999850e-01 2.520689999999999875e-01 3.969230000000000258e-01 6.395769999999999511e-01 -7.025900000000000201e-02
1.236199999999999938e-01 5.313010000000000232e-01 2.438819999999999877e-01 2.343179999999999985e-01 1.026900000000000035e-02 -4.672199999999999964e-02 6.187049999999999494e-01 2.048369999999999913e-01 1.256517000000000106e+00 -1.478164999999999951e+00 -7.817960000000000464e-01 5.540849999999999831e+00 1.425230000000000108e-01 1.584147999999999890e+00 -1.848422000000000009e+00 1.405260000000000120e-01 3.845299999999999829e-01 -8.180399999999999894e-01 -4.476720000000000144e-01 6.252140000000000475e-01 -5.953000000000000513e-01 -6.968199999999999950e-01 -5.251590000000000424e-01 5.737520000000000397e-01 2.790380000000000082e-01 -6.030839999999999534e-01 -5.802169999999999828e-01 -2.573559999999999737e-01 -2.092940000000000078e-01 -3.520579999999999821e-01 -7.465099999999999514e-02 1.700199999999999975e-02 -6.827300000000000035e-02 1.415934000000000026e+00 -1.237969000000000097e+00 -3.305969000000000158e+00
4.923279999999999879e-01 1.882079000000000057e+00 1.335063000000000111e+00 3.354399999999999743e-02 -4.795470000000000010e-01 1.621540999999999899e+00 3.317200000000000010e-02 2.756270000000000109e-01 7.008029999999999538e-01 -9.957270000000000287e-01 -8.582950000000000301e-01 4.628050000000000219e-01 1.865469999999999906e-01 -1.411302000000000056e+00 -1.742723000000000022e+00 9.450300000000000367e-02 2.270718000000000014e+00 -2.523451000000000111e+00 -1.862969999999999904e-01 1.432090000000000030e-01 -4.897219999999999906e-01 -3.170239999999999725e-01 6.000079999999999858e-01 2.403889999999999916e-01 3.692960000000000131e-01 -2.658047999999999966e+00 2.384272999999999865e+00 -4.006449999999999734e-01 -4.802599999999999925e-02 -5.768010000000000081e-01 4.314990000000000214e-01 7.793250000000000455e-01 -1.544613999999999931e+00 2.588050000000000073e-01 -4.957489999999999952e-01 1.324380000000000002e-01
-7.507000000000000339e-01 1.865599999999999897e-02 4.542550000000000199e-01 1.693790000000000018e-01 5.341800000000000020e-02 1.903350000000000042e-01 5.383240000000000247e-01 6.674360000000000293e-01 6.221839999999999593e-01 -4.886659999999999893e-01 -2.763630000000000253e-01 1.431259999999999977e+00 -1.234270999999999896e+00 -1.048418999999999990e+00 5.995650000000000146e-01 4.182210000000000094e-01 3.110399999999999832e-01 -1.277304999999999913e+00 -1.508218000000000059e+00 2.164940000000000087e+00 -1.340192999999999968e+00 -1.781830000000000080e-01 9.325700000000000656e-02 5.839879999999999516e-01 2.893178999999999945e+00 -1.470099999999999962e+00 -9.539020000000000277e-01 -4.368509999999999893e-01 -1.457934999999999981e+00 3.582500000000000268e-02 8.390410000000000368e-01 -2.072479999999999878e-01 1.353474999999999984e+00 -2.612539999999999862e-01 1.151318000000000064e+00 -1.699486999999999970e+00
-9.040040000000000298e-01 -8.781200000000000117e-02 1.119990000000000013e-01 5.779950000000000365e-01 3.140510000000000246e-01 -5.809600000000000319e-01 -8.627369999999999761e-01 1.524545000000000039e+00 2.132719999999999894e-01 1.271786000000000083e+00 -7.976119999999999877e-01 -1.151788000000000034e+00 2.187908000000000186e+00 1.846346000000000043e+00 -2.551430000000000087e-01 -2.107221000000000011e+00 -3.380560000000000231e-01 -8.696600000000000164e-02 -2.227018999999999860e+00 -3.804572999999999983e+00 2.712744999999999962e+00 7.212990000000000235e-01 -6.649810000000000443e-01 9.658989999999999521e-01 4.722149999999999959e-01 1.656538000000000066e+00 1.256318999999999964e+00 1.715029999999999888e-01 1.945949999999999902e-01 2.068760000000000043e-01 7.726950000000000207e-01 -2.422000999999999848e+00 -1.367976000000000081e+00 -7.442200000000000204e-02 2.578959999999999919e+00 -2.024277999999999800e+00
1.414509999999999934e-01 1.189729999999999954e-01 -5.889410000000000478e-01 -1.227410000000000029e-01 -1.205786999999999942e+00 1.409019000000000021e+00 5.856749999999999456e-01 -1.568350000000000022e-01 -3.274599999999999733e-02 4.298440000000000039e-01 -4.993650000000000033e-01 -4.220700000000000007e-01 -9.407180000000000542e-01 4.853500000000000175e-02 5.042180000000000550e-01 -1.143148000000000053e+00 9.522890000000000521e-01 2.301399999999999973e-02 -5.091609999999999747e-01 5.498750000000000027e-01 1.251210000000000100e-01 -2.148059999999999969e-01 -1.090689999999999993e-01 -7.957999999999999796e-03 4.749519999999999853e-01 -3.220091000000000037e+00 3.181926999999999950e+00 1.075649999999999940e-01 4.514389999999999792e-01 -2.037319999999999964e-01 6.363220000000000542e-01 3.664813000000000098e+00 -3.580115999999999854e+00 5.547659999999999814e-01 -5.947780000000000289e-01 -4.077359999999999873e-01
-1.666088999999999931e+00 -5.337760000000000282e-01 -1.227298999999999918e+00 -2.637491999999999948e+00 2.387064000000000075e+00 -2.486559999999999881e-01 -4.306670000000000220e-01 -4.474870000000000236e-01 -1.176589999999999997e-01 1.422879000000000005e+00 -2.001282999999999923e+00 2.363640999999999881e+00 -8.990430000000000366e-01 -3.671849999999999836e-01 5.978980000000000405e-01 -7.677549999999999653e-01 3.322499999999999759e-02 2.572240000000000082e-01 3.426890000000000214e-01 1.257457999999999965e+00 5.802760000000000140e-01 1.318202000000000096e+00 1.316324000000000050e+00 -1.540234000000000103e+00 6.476929999999999632e-01 4.623669999999999725e-01 -1.894569999999999865e-01 9.738860000000000294e-01 4.701150000000000051e-01 3.368950000000000000e-01 -1.149694999999999911e+00 4.884270000000000000e-01 -1.491250000000000075e-01 2.845390999999999782e+00 -3.065246999999999833e+00 -6.635039999999999827e-01
-2.896339999999999915e+00 2.331554999999999822e+00 9.809080000000000021e-01 2.979339999999999766e-01 -4.402500000000000163e-02 -2.746689999999999965e-01 2.353339999999999876e-01 9.590459999999999541e-01 -1.242850000000000066e-01 1.189402000000000070e+00 6.056540000000000257e-01 -6.922460000000000280e-01 -1.017860999999999905e+00 -2.863310000000000022e-01 -7.699380000000000113e-01 -4.783069999999999822e-01 -2.961409999999999876e-01 -2.388699999999999851e-02 1.207386999999999988e+00 -6.390379999999999949e-01 -9.083550000000000235e-01 -1.973080000000000112e-01 -4.497340000000000226e-01 -5.956339999999999968e-01 -8.493239999999999679e-01 6.703999999999999890e-03 4.590549999999999908e-01 -4.106290000000000218e-01 1.380709999999999993e-01 5.375959999999999628e-01 -2.367100000000000037e-01 3.706130000000000257e-01 5.723179999999999934e-01 3.156423000000000201e+00 -2.696372999999999909e+00 8.391359999999999930e-01
2.438410000000000022e-01 -4.075779999999999959e-01 6.683259999999999756e-01 -1.355566999999999966e+00 9.313820000000000432e-01 5.460500000000000353e-01 -3.557799999999999851e-02 6.281419999999999781e-01 4.836399999999999727e-02 -4.132813999999999766e+00 -2.968808000000000114e+00 -8.088199999999999557e-02 1.374217999999999940e+00 -9.965650000000000341e-01 5.594980000000000508e-01 1.204471999999999987e+00 -7.657019999999999937e-01 2.094769999999999965e-01 1.911362000000000005e+00 2.660454000000000097e+00 2.820400000000000129e-01 7.483940000000000037e-01 5.367950000000000221e-01 5.200850000000000195e-01 6.464149999999999618e-01 1.760388999999999982e+00 -4.805530000000000079e-01 3.060680000000000067e-01 1.895920000000000105e-01 -1.448938999999999977e+00 -1.044091000000000102e+00 -6.004420000000000313e-01 -1.937419999999999976e-01 1.332790000000000086e-01 -9.676609999999999934e-01 -6.297249999999999792e-01
5.420620000000000438e-01 -6.234629999999999894e-01 -1.760480000000000100e-01 4.726299999999999946e-01 7.703699999999999992e-01 -3.799540000000000139e-01 -1.058203999999999922e+00 -1.887677999999999967e+00 6.048959999999999892e-01 3.174399999999999999e-01 -3.243229999999999724e-01 -4.955269999999999953e-01 -2.602280000000000149e-01 8.171279999999999655e-01 -4.567149999999999821e-01 -2.347839000000000009e+00 1.294999999999999929e+00 -8.680820000000000203e-01 -9.678250000000000464e-01 -7.259799999999999587e-01 -6.600260000000000016e-01 2.947025000000000006e+00 -3.029110000000000191e+00 8.832189999999999763e-01 7.153610000000000246e-01 -3.838030000000000053e-01 1.098284000000000038e+00 -3.767699999999999938e-01 3.525869999999999838e+00 -5.350439999999999641e-01 6.454419999999999602e-01 3.238309999999999800e-01 3.364999999999999936e-03 -6.290940000000000420e-01 2.421580000000000121e-01 9.816319999999999490e-01
-3.828481000000000023e+00 2.795779000000000014e+00 -4.832460000000000089e-01 6.182560000000000278e-01 1.351151999999999909e+00 -2.055740000000000067e-01 -1.442315999999999931e+00 -1.088632000000000044e+00 3.544970000000000065e-01 2.809630000000000183e-01 2.958370000000000166e-01 -1.162299999999999965e-02 -7.476700000000000013e-02 -3.650699999999999779e-02 2.898430000000000173e-01 1.167549999999999977e-01 -9.566099999999999604e-01 3.098609999999999975e-01 -2.792069999999999830e-01 -7.238449999999999607e-01 7.291250000000000231e-01 3.270251000000000019e+00 -3.540576999999999863e+00 -5.815700000000000314e-01 5.893890000000000517e-01 -1.098660000000000053e-01 -2.880999999999999880e-03 2.746600000000000083e-02 -3.085450000000000137e-01 5.242599999999999483e-01 -2.259990000000000054e-01 1.074287999999999910e+00 -7.289700000000000069e-01 9.476900000000000324e-01 1.247527999999999970e+00 -1.937220000000000053e-01
-4.966000000000000275e-02 2.346541999999999906e+00 3.284590000000000121e+00 -2.722898999999999958e+00 -2.880876999999999910e+00 4.390680000000000138e-01 -6.871669999999999723e-01 3.618790000000000062e-01 -2.195090000000000097e-01 2.644949999999999801e-01 3.429800000000000071e-01 -4.362429999999999919e-01 -5.317239999999999744e-01 3.484530000000000127e-01 -1.704112000000000071e+00 5.622400000000000314e-02 -2.502883999999999887e+00 -1.732599999999999918e+00 8.102989999999999915e-01 -8.612670000000000048e-01 4.660929999999999795e-01 6.606389999999999763e-01 8.983269999999999866e-01 -1.045746000000000064e+00 1.241140000000000021e-01 -1.899319999999999897e-01 -4.123999999999999888e-01 1.147009999999999974e-01 5.164360000000000062e-01 -8.162430000000000518e-01 2.434118999999999922e+00 1.973486000000000073e+00 8.447090000000000432e-01 -4.731389999999999763e-01 -3.531429999999999847e-01 1.332392999999999939e+00
-6.526659999999999684e-01 5.286539999999999573e-01 2.832609999999999850e-01 -7.109799999999999454e-02 -1.205294000000000088e+00 -3.092079999999999829e-01 -6.604799999999999560e-01 2.493116999999999805e+00 1.929340000000000055e+00 -1.788599999999999912e-02 -8.299830000000000263e-01 1.149809999999999999e-01 5.127310000000000478e-01 -8.056689999999999685e-01 5.952790000000000026e-01 1.101121999999999934e+00 -5.302519999999999456e-01 -3.248750000000000249e-01 4.226530000000000009e-01 1.622619999999999951e+00 -9.844749999999999890e-01 -1.796720000000000095e+00 1.451198999999999906e+00 2.796910000000000229e-01 -1.294109999999999983e-01 1.767660000000000065e-01 -7.263009999999999744e-01 3.550360000000000182e-01 -3.486854999999999816e+00 -1.129030999999999896e+00 8.374650000000000150e-01 9.384000000000000674e-02 3.188300000000000023e-01 9.925499999999999601e-02 4.918580000000000174e-01 -4.749099999999999849e-02
1.095388000000000028e+00 -1.635759999999999992e-01 -9.035090000000000066e-01 3.915350000000000219e-01 9.344820000000000348e-01 7.675939999999999985e-01 2.732939999999999814e-01 8.312009999999999676e-01 3.176499999999999879e-01 -7.193599999999999994e-01 -2.409860000000000058e-01 7.034249999999999670e-01 -3.170620000000000105e-01 -3.778560000000000252e-01 -6.170579999999999954e-01 -2.070364000000000093e+00 -2.751215999999999884e+00 -8.965710000000000068e-01 -3.823630000000000084e-01 1.247430000000000067e-01 -2.430239999999999900e-01 3.035149999999999793e+00 1.493333000000000022e+00 -1.626230999999999982e+00 -1.474637999999999893e+00 1.845779999999999921e-01 1.029320999999999930e+00 5.763380000000000170e-01 1.209915999999999991e+00 9.376870000000000482e-01 5.843000000000000103e-03 -4.605000000000000204e-01 -2.961960000000000148e-01 -4.137600000000000167e-01 -7.841190000000000104e-01 8.269130000000000091e-01
7.873210000000000486e-01 -8.783809999999999674e-01 2.511970000000000036e-01 9.477189999999999781e-01 -2.565999999999999948e-01 -9.176389999999999825e-01 -2.299489999999999867e-01 -4.268520000000000092e-01 -3.498240000000000238e-01 6.917619999999999880e-01 -3.839319999999999955e-01 1.218599999999999905e+00 7.988929999999999643e-01 -9.530650000000000510e-01 -1.467859999999999998e-01 -6.717619999999999703e-01 7.172859999999999792e-01 -5.721500000000000474e-01 -1.415677999999999992e+00 5.591380000000000239e-01 -1.216219999999999940e-01 -4.238830000000000098e-01 -1.243499999999999987e-02 -2.702030000000000265e-01 2.586272000000000126e+00 2.804758999999999780e+00 1.725669999999999982e-01 -1.975999999999999892e-03 1.599129999999999996e-01 5.964040000000000452e-01 -8.973910000000000498e-01 1.323949000000000042e+00 -2.531760000000000121e-01 -2.171327999999999925e+00 -2.653779000000000110e+00 3.926319999999999810e-01
7.793470000000000120e-01 2.829439999999999733e-01 1.327800000000000091e-01 3.450380000000000114e-01 -4.871999999999999942e-02 7.891700000000000104e-02 -2.497330000000000105e-01 -1.417599999999999937e-02 -4.213370000000000171e-01 -2.035816000000000070e+00 2.481164999999999843e+00 -4.167850000000000166e-01 2.998288000000000064e+00 -3.443102999999999803e+00 -1.060465999999999909e+00 1.736659999999999870e-01 -4.724400000000000266e-01 3.710930000000000062e-01 -6.619030000000000191e-01 1.338996000000000075e+00 2.195590000000000042e-01 -7.376299999999999524e-02 7.344180000000000152e-01 8.412840000000000318e-01 -3.811000000000000151e-03 1.975000000000000089e-01 3.129589999999999872e-01 -8.797220000000000040e-01 -3.056110000000000215e-01 1.635999999999999954e-01 -1.360800000000000030e-02 -9.490300000000000402e-01 -4.542829999999999924e-01 -3.779819999999999847e-01 1.980580000000000118e-01 2.326769999999999949e-01
1.831339999999999912e-01 9.197589999999999932e-01 6.139300000000000312e-02 -9.495989999999999709e-01 -3.677250000000000241e-01 5.762230000000000407e-01 -3.745799999999999824e-02 1.265280000000000016e-01 2.101399999999999935e-01 3.510199999999999987e-01 -1.544041999999999915e+00 4.083060000000000023e-01 5.870330000000000270e-01 -5.022510000000000030e-01 -2.037909999999999999e-01 -2.649369999999999781e-01 4.423409999999999842e-01 2.554649999999999976e-01 -3.148139999999999827e-01 1.040057000000000009e+00 9.008800000000000141e-02 7.776910000000000212e-01 -4.494600000000000262e-01 1.392670000000000019e-01 -3.494918000000000191e+00 -1.712698000000000054e+00 1.553087000000000106e+00 -1.030605999999999911e+00 4.461699999999999694e-02 -2.266849000000000114e+00 3.938500000000000334e-02 2.327395999999999798e+00 1.126584000000000030e+00 4.154069999999999929e+00 -3.245199999999999751e-01 -1.949913000000000007e+00
1.911809999999999898e-01 1.704895999999999967e+00 -1.001830999999999916e+00 -3.845571000000000073e+00 -3.729553999999999814e+00 2.503899999999999793e+00 -6.734999999999999876e-01 -1.969087999999999949e+00 7.056379999999999875e-01 1.022450000000000081e+00 3.670939999999999759e-01 4.357130000000000170e-01 3.692159999999999886e-01 -1.551230000000000109e-01 -6.016679999999999806e-01 -1.360659999999999981e+00 4.808459999999999956e-01 -3.445369999999999822e-01 3.171473999999999904e+00 3.533831000000000166e+00 1.581955999999999918e+00 1.167829000000000006e+00 -1.104473000000000038e+00 -2.793752000000000013e+00 3.985500000000000154e-02 -2.709340000000000082e-01 -9.611809999999999521e-01 6.537399999999999878e-01 -3.524329999999999963e-01 -1.965069999999999872e-01 -3.807610000000000161e-01 -1.783470000000000055e-01 6.983489999999999975e-01 -3.552520000000000122e-01 1.673286999999999969e+00 -2.607999999999999902e-02
