3.895370000000000221e+00 2.511330000000000062e+00 1.796420000000000172e+01 1.983570000000000055e+00 2.496350000000000069e+00 1.153110000000000035e+01 1.954129999999999923e+00 1.254210000000000047e+00 7.302199999999999802e-01 3.939849999999999852e+00 1.185380000000000100e+00 2.162920000000000176e+00 2.026289999999999925e+00 2.424570000000000114e+00 7.175169999999999604e+00 1.832999999999999907e-02 3.436999999999999778e-02 4.362129999999999619e+00 -1.145999999999999970e-02 9.865999999999999770e-02 8.649010000000000531e+00 6.001000000000000084e-02 1.282489999999999908e+00 6.473550000000000360e+00 1.966120000000000090e+00 1.241829999999999989e+00 5.077729999999999855e+00 2.026190000000000158e+00 1.304470000000000018e+00 9.385369999999999990e+00 2.080999999999999961e+00 2.464929999999999843e+00 2.896720000000000184e+00 3.911319999999999908e+00 1.244429999999999925e+00 1.079560000000000031e+01
3.786560000000000148e+00 2.487779999999999880e+00 1.779240000000000066e+01 1.948490000000000055e+00 2.477240000000000109e+00 1.165329999999999977e+01 1.877839999999999954e+00 1.273200000000000109e+00 6.293100000000000360e-01 3.963099999999999845e+00 1.117969999999999908e+00 2.085599999999999898e+00 2.085399999999999920e+00 2.386969999999999814e+00 7.240560000000000329e+00 1.659000000000000058e-02 5.489999999999999741e-02 4.332279999999999909e+00 6.779999999999999916e-02 2.026699999999999890e-01 8.612949999999999662e+00 6.901999999999999802e-02 1.301539999999999919e+00 6.500390000000000335e+00 2.038629999999999942e+00 1.219459999999999988e+00 5.073660000000000281e+00 2.028649999999999842e+00 1.384160000000000057e+00 9.429980000000000473e+00 2.055289999999999839e+00 2.429060000000000219e+00 2.945240000000000080e+00 3.913359999999999950e+00 1.208080000000000043e+00 1.090809999999999924e+01
1.959850000000000092e+00 1.056600000000000039e-01 1.122610000000000063e+01 1.938560000000000061e+00 1.323409999999999975e+00 9.124650000000000816e+00 -2.199999999999999872e-02 1.325970000000000093e+00 1.052989999999999959e+01 1.950039999999999996e+00 1.240739999999999954e+00 7.011399999999999855e-01 -1.789999999999999925e-02 1.252660000000000107e+00 2.105970000000000120e+00 1.932940000000000103e+00 2.491120000000000001e+00 2.813769999999999882e+00 3.922759999999999803e+00 7.817999999999999949e-02 8.420180000000000220e+00 3.902649999999999952e+00 2.465489999999999959e+00 4.299999999999999894e-04 -1.868999999999999828e-02 1.290680000000000049e+00 6.312100000000000044e+00 1.957689999999999930e+00 6.970999999999999419e-02 7.024239999999999817e+00 1.946949999999999958e+00 1.281079999999999997e+00 4.913490000000000357e+00 -1.600000000000000077e-03 3.941000000000000059e-02 4.208980000000000388e+00
1.871599999999999930e+00 1.205759999999999943e+00 4.890729999999999578e+00 3.926219999999999821e+00 1.235020000000000007e+00 1.984750000000000014e+00 1.878079999999999972e+00 2.344650000000000123e+00 2.728349999999999831e+00 2.003400000000000070e+00 2.273820000000000174e+00 6.993299999999999628e+00 -6.062000000000000027e-02 1.311309999999999976e+00 1.075140000000000029e+01 3.553920000000000190e+00 4.440000000000000370e-03 1.486190000000000033e+01 1.816650000000000098e+00 1.186490000000000045e+00 9.201019999999999754e+00 1.969100000000000072e+00 1.152699999999999975e-01 1.144420000000000037e+01 -3.162999999999999839e-02 1.006459999999999910e+00 6.307610000000000383e+00 3.892749999999999932e+00 2.313050000000000050e+00 4.158310000000000173e+00 -2.159200000000000008e-01 8.189999999999999364e-03 8.487370000000000303e+00 1.972630000000000106e+00 1.318500000000000005e+00 4.431399999999999784e-01
7.448000000000000453e-02 1.584299999999999875e-01 8.240000000000000796e-03 1.904959999999999987e+00 2.429399999999999782e+00 1.156129999999999924e+01 1.995419999999999972e+00 1.176860000000000017e+00 7.329099999999999504e-01 6.894000000000000128e-02 1.335790000000000033e+00 2.154009999999999980e+00 2.011559999999999793e+00 2.439509999999999845e+00 7.194449999999999790e+00 3.972389999999999866e+00 2.393299999999999983e+00 4.363489999999999647e+00 4.200999999999999873e-02 7.159000000000000086e-02 8.566549999999999443e+00 3.951480000000000103e+00 1.280040000000000067e+00 6.420980000000000132e+00 2.036300000000000221e+00 1.173019999999999952e+00 5.032289999999999708e+00 1.986750000000000016e+00 1.386169999999999902e+00 9.373279999999999390e+00 1.980990000000000029e+00 2.404580000000000162e+00 2.953819999999999890e+00 3.885600000000000165e+00 1.222199999999999953e+00 1.081010000000000026e+01
1.907200000000000006e+00 2.552369999999999806e+00 1.127219999999999978e+01 1.954569999999999919e+00 1.297549999999999981e+00 9.097989999999999355e+00 2.279999999999999909e-03 1.293630000000000058e+00 1.059270000000000067e+01 1.941170000000000062e+00 1.244070000000000009e+00 6.902899999999999592e-01 3.884999999999999787e+00 1.242269999999999985e+00 2.078149999999999942e+00 1.956970000000000098e+00 2.480640000000000178e+00 2.821470000000000145e+00 3.892679999999999918e+00 9.350999999999999590e-02 8.448529999999999873e+00 -2.842000000000000082e-02 2.593760000000000066e+00 1.404889999999999972e+01 3.891329999999999956e+00 1.318840000000000012e+00 6.353659999999999641e+00 1.947089999999999987e+00 2.528249999999999886e+00 7.006160000000000387e+00 1.955219999999999958e+00 1.325709999999999944e+00 4.883259999999999934e+00 4.499999999999999660e-03 6.099999999999999867e-02 4.196189999999999642e+00
2.057560000000000056e+00 2.642189999999999817e+00 7.093309999999999782e+00 1.248400000000000065e-01 1.553029999999999911e+00 1.060800000000000054e+01 9.460999999999999965e-02 2.692689999999999806e+00 8.468500000000000583e+00 2.007589999999999986e+00 1.243659999999999988e+00 6.731099999999999861e-01 4.210099999999999731e+00 3.060259999999999980e+00 2.162702000000000169e+01 3.997990000000000155e+00 1.322650000000000103e+00 2.105239999999999778e+00 2.133230000000000182e+00 3.371799999999999797e-01 1.133430000000000071e+01 2.044119999999999937e+00 1.373380000000000045e+00 4.923519999999999897e+00 2.104239999999999888e+00 1.486830000000000096e+00 9.181910000000000238e+00 4.050370000000000026e+00 1.391480000000000050e+00 6.367799999999999905e+00 2.042990000000000084e+00 1.120300000000000046e-01 2.810599999999999987e+00 4.886999999999999678e-02 2.579470000000000152e+00 4.230559999999999654e+00
1.931939999999999991e+00 1.195999999999999952e+00 4.900850000000000151e+00 4.023439999999999905e+00 1.200569999999999915e+00 2.098079999999999945e+00 2.016890000000000072e+00 2.398019999999999818e+00 2.805130000000000123e+00 1.844530000000000003e+00 -9.459999999999999659e-03 7.002589999999999648e+00 -2.327100000000000002e-01 1.188050000000000050e+00 1.050089999999999968e+01 -3.223799999999999999e-01 2.383459999999999912e+00 1.505509999999999948e+01 1.823870000000000102e+00 1.191840000000000011e+00 9.098240000000000549e+00 1.735619999999999941e+00 -1.535000000000000080e-02 1.120030000000000037e+01 -1.275300000000000045e-01 1.195929999999999938e+00 6.296240000000000059e+00 -1.075300000000000006e-01 -5.969999999999999613e-03 4.200120000000000076e+00 -2.139300000000000090e-01 -9.220000000000000764e-03 8.393720000000000070e+00 2.039540000000000131e+00 1.202460000000000084e+00 7.007100000000000550e-01
1.923990000000000089e+00 2.568810000000000038e+00 1.126619999999999955e+01 1.925249999999999906e+00 1.289260000000000073e+00 9.129030000000000200e+00 -1.737999999999999962e-02 1.332039999999999891e+00 1.055139999999999922e+01 1.940379999999999994e+00 1.212520000000000042e+00 6.540099999999999802e-01 8.389999999999999888e-03 1.257009999999999961e+00 2.096130000000000049e+00 1.949000000000000066e+00 2.475969999999999782e+00 2.840279999999999916e+00 3.922520000000000007e+00 9.039999999999999425e-02 8.419510000000000716e+00 3.907399999999999984e+00 1.466999999999999971e-01 1.405377000000000010e+01 -1.878000000000000155e-02 1.304319999999999924e+00 6.324819999999999887e+00 1.940590000000000037e+00 7.341999999999999915e-02 7.017369999999999663e+00 1.962089999999999890e+00 1.300759999999999916e+00 4.929560000000000386e+00 3.933129999999999793e+00 4.209999999999999853e-02 4.207379999999999676e+00
1.951310000000000100e+00 2.512529999999999930e+00 1.135069999999999979e+01 1.943529999999999980e+00 1.326349999999999918e+00 9.154700000000000060e+00 -8.869999999999999413e-03 1.271730000000000027e+00 1.064259999999999984e+01 1.950930000000000053e+00 1.254150000000000098e+00 5.176199999999999690e-01 3.898420000000000218e+00 1.174960000000000004e+00 2.038629999999999942e+00 1.885939999999999950e+00 2.459119999999999973e+00 2.846020000000000216e+00 2.767999999999999974e-02 1.067400000000000015e-01 8.484059999999999491e+00 3.834919999999999884e+00 2.534060000000000201e+00 1.394087999999999994e+01 9.169999999999999332e-03 1.424400000000000110e+00 6.298040000000000305e+00 1.951429999999999998e+00 7.757999999999999619e-02 7.022619999999999862e+00 1.983330000000000037e+00 1.241989999999999927e+00 4.930990000000000428e+00 3.915299999999999780e+00 1.788399999999999990e-01 4.262640000000000207e+00
5.521999999999999825e-02 1.016000000000000063e-02 3.824000000000000316e-02 1.869280000000000053e+00 7.886999999999999567e-02 1.159580000000000055e+01 2.006740000000000190e+00 1.168840000000000101e+00 7.042300000000000226e-01 2.733999999999999972e-02 1.246869999999999923e+00 2.121609999999999996e+00 2.077780000000000182e+00 2.445889999999999898e+00 7.235610000000000319e+00 6.710000000000000686e-02 2.442509999999999959e+00 4.360640000000000072e+00 3.964030000000000165e+00 2.407459999999999933e+00 8.575509999999999522e+00 2.307000000000000023e-02 1.309250000000000025e+00 6.494880000000000209e+00 1.939370000000000038e+00 1.264340000000000019e+00 5.093309999999999782e+00 1.915110000000000090e+00 1.324580000000000091e+00 9.282679999999999154e+00 2.039559999999999818e+00 2.417060000000000208e+00 2.864259999999999806e+00 3.921000000000000180e-02 1.355080000000000062e+00 1.080470000000000041e+01
2.042199999999999793e+00 2.602320000000000189e+00 7.109609999999999985e+00 4.084299999999999820e+00 1.583990000000000009e+00 1.061930000000000085e+01 4.017940000000000289e+00 2.641680000000000028e+00 8.525639999999999219e+00 2.041209999999999969e+00 1.221519999999999939e+00 6.622000000000000108e-01 2.849800000000000111e-01 6.497199999999999642e-01 2.163223999999999947e+01 3.959610000000000074e+00 1.390279999999999960e+00 2.139720000000000066e+00 2.118059999999999832e+00 2.714039999999999786e+00 1.125489999999999924e+01 2.055169999999999941e+00 1.314829999999999943e+00 4.947219999999999729e+00 2.124800000000000022e+00 1.509269999999999889e+00 9.117340000000000444e+00 1.285499999999999976e-01 1.470590000000000064e+00 6.396519999999999762e+00 1.997479999999999922e+00 1.286700000000000066e-01 2.860269999999999868e+00 6.221000000000000141e-02 2.567950000000000177e+00 4.158820000000000405e+00
1.907939999999999969e+00 1.229759999999999964e+00 4.832309999999999661e+00 3.979940000000000033e+00 1.249870000000000037e+00 2.054260000000000197e+00 1.899119999999999919e+00 2.331620000000000026e+00 2.822740000000000027e+00 2.007890000000000175e+00 2.313969999999999860e+00 7.000070000000000014e+00 -1.220399999999999957e-01 1.271840000000000082e+00 1.061389999999999922e+01 3.580569999999999808e+00 -1.941000000000000017e-02 1.498610000000000042e+01 1.836519999999999930e+00 1.181640000000000024e+00 9.144489999999999341e+00 1.899769999999999959e+00 7.792000000000000315e-02 1.131359999999999921e+01 -6.869000000000000106e-02 1.054559999999999942e+00 6.307640000000000136e+00 3.908110000000000195e+00 2.323389999999999844e+00 4.155780000000000030e+00 3.782989999999999853e+00 1.050000000000000065e-02 8.468489999999999185e+00 2.012789999999999857e+00 1.297309999999999963e+00 5.526100000000000456e-01
1.922460000000000058e+00 1.217019999999999991e+00 4.897029999999999994e+00 -1.086999999999999945e-02 1.226380000000000026e+00 2.092290000000000205e+00 1.960169999999999968e+00 3.699999999999999947e-04 2.803900000000000059e+00 1.860829999999999984e+00 4.360000000000000160e-03 6.995260000000000034e+00 3.806890000000000107e+00 1.205699999999999994e+00 1.054809999999999981e+01 -3.207900000000000196e-01 2.379939999999999944e+00 1.504299999999999926e+01 1.838940000000000019e+00 1.185249999999999915e+00 9.099309999999999121e+00 1.734879999999999978e+00 -9.140000000000000555e-03 1.121669999999999945e+01 3.899169999999999803e+00 1.178350000000000009e+00 6.294959999999999667e+00 4.003409999999999691e+00 2.379869999999999930e+00 4.177590000000000359e+00 -1.377700000000000036e-01 2.384780000000000122e+00 8.393929999999999225e+00 2.018839999999999968e+00 1.170080000000000009e+00 6.899199999999999777e-01
1.867080000000000073e+00 1.151690000000000103e+00 4.915849999999999831e+00 -2.880000000000000181e-03 1.236220000000000097e+00 2.026619999999999866e+00 1.961640000000000050e+00 1.286999999999999950e-02 2.825219999999999843e+00 1.875709999999999988e+00 1.179000000000000013e-02 7.030350000000000321e+00 -1.938600000000000045e-01 1.165329999999999977e+00 1.050000000000000000e+01 3.581850000000000200e+00 -1.747999999999999901e-02 1.499019999999999975e+01 1.873380000000000045e+00 1.183929999999999927e+00 9.138199999999999434e+00 1.788540000000000019e+00 2.368380000000000152e+00 1.123210000000000086e+01 3.894309999999999938e+00 1.188299999999999912e+00 6.324069999999999858e+00 3.933129999999999793e+00 5.745000000000000107e-02 4.168180000000000440e+00 -1.751399999999999901e-01 -1.299999999999999886e-04 8.416840000000000543e+00 2.038469999999999782e+00 1.151350000000000096e+00 6.842899999999999539e-01
1.926949999999999941e+00 2.559870000000000090e+00 1.138620000000000054e+01 1.923789999999999889e+00 1.266240000000000032e+00 9.154840000000000089e+00 -2.352999999999999883e-02 1.338799999999999990e+00 1.062689999999999912e+01 1.936909999999999910e+00 1.192339999999999955e+00 5.684900000000000508e-01 2.077999999999999986e-02 1.261130000000000084e+00 2.061380000000000212e+00 1.964909999999999934e+00 2.466239999999999988e+00 2.834140000000000104e+00 3.913640000000000008e+00 9.511999999999999622e-02 8.431369999999999365e+00 3.894169999999999909e+00 1.607699999999999962e-01 1.392338999999999949e+01 3.910579999999999945e+00 1.317099999999999937e+00 6.337060000000000137e+00 1.938879999999999937e+00 7.409999999999999920e-02 7.017389999999999795e+00 1.967400000000000038e+00 1.310629999999999962e+00 4.938019999999999854e+00 2.099999999999999870e-03 5.099000000000000060e-02 4.210379999999999789e+00
2.067930000000000046e+00 2.089300000000000046e-01 7.066279999999999895e+00 1.155100000000000016e-01 1.533979999999999899e+00 1.058789999999999942e+01 4.077659999999999840e+00 2.471399999999999986e-01 8.470610000000000639e+00 2.003870000000000040e+00 1.248450000000000060e+00 7.045400000000000551e-01 8.139999999999999666e-03 2.455379999999999896e+00 3.579999999999999849e-03 2.776999999999999955e-02 1.294960000000000111e+00 2.122860000000000191e+00 2.114069999999999894e+00 3.251000000000000001e-01 1.129649999999999999e+01 2.045040000000000191e+00 1.374069999999999903e+00 4.939040000000000319e+00 2.093820000000000014e+00 1.494779999999999998e+00 9.185169999999999391e+00 6.968000000000000582e-02 1.412199999999999900e+00 6.352369999999999628e+00 2.029150000000000009e+00 8.727000000000000035e-02 2.819910000000000139e+00 5.328999999999999709e-02 2.575670000000000126e+00 4.240029999999999966e+00
2.083130000000000148e+00 2.263100000000000112e-01 7.072799999999999976e+00 4.067260000000000097e+00 1.596130000000000049e+00 1.062209999999999965e+01 3.990169999999999995e+00 2.792100000000000137e-01 8.419389999999999930e+00 2.084319999999999951e+00 1.327690000000000037e+00 5.734599999999999698e-01 3.172900000000000165e-01 6.953899999999999526e-01 2.151411999999999836e+01 3.948150000000000048e+00 1.186669999999999892e+00 2.072940000000000005e+00 2.137230000000000185e+00 2.715700000000000003e+00 1.143590000000000018e+01 2.063940000000000108e+00 1.271539999999999893e+00 4.922830000000000261e+00 2.057059999999999889e+00 1.581990000000000007e+00 9.173049999999999926e+00 4.014980000000000437e+00 1.452239999999999975e+00 6.392430000000000057e+00 2.022959999999999869e+00 2.430019999999999847e+00 2.877990000000000048e+00 1.156200000000000006e-01 2.573529999999999873e+00 4.346829999999999750e+00
-5.924999999999999711e-02 7.757000000000000006e-02 1.802890000000000015e+01 1.929489999999999927e+00 4.964999999999999969e-02 1.152590000000000003e+01 1.998010000000000064e+00 1.236660000000000093e+00 7.216099999999999737e-01 3.969949999999999868e+00 1.234809999999999963e+00 2.165639999999999787e+00 2.020950000000000024e+00 2.478070000000000217e+00 7.201439999999999841e+00 5.761000000000000149e-02 2.471169999999999867e+00 4.326480000000000103e+00 3.975119999999999987e+00 2.485300000000000065e+00 8.651350000000000762e+00 3.955810000000000048e+00 1.253430000000000044e+00 6.483999999999999986e+00 1.989109999999999934e+00 1.247409999999999908e+00 5.044929999999999914e+00 1.975060000000000038e+00 1.262399999999999967e+00 9.362750000000000128e+00 1.968779999999999974e+00 1.740999999999999839e-02 2.879109999999999836e+00 2.309999999999999987e-03 1.274820000000000064e+00 1.081170000000000009e+01
1.959850000000000092e+00 1.056600000000000039e-01 1.122610000000000063e+01 1.938560000000000061e+00 1.323409999999999975e+00 9.124650000000000816e+00 -2.199999999999999872e-02 1.325970000000000093e+00 1.052989999999999959e+01 1.950039999999999996e+00 1.240739999999999954e+00 7.011399999999999855e-01 -1.789999999999999925e-02 1.252660000000000107e+00 2.105970000000000120e+00 1.932940000000000103e+00 2.491120000000000001e+00 2.813769999999999882e+00 3.922759999999999803e+00 7.817999999999999949e-02 8.420180000000000220e+00 3.902649999999999952e+00 2.465489999999999959e+00 4.299999999999999894e-04 -1.868999999999999828e-02 1.290680000000000049e+00 6.312100000000000044e+00 1.957689999999999930e+00 6.970999999999999419e-02 7.024239999999999817e+00 1.946949999999999958e+00 1.281079999999999997e+00 4.913490000000000357e+00 -1.600000000000000077e-03 3.941000000000000059e-02 4.208980000000000388e+00
1.983759999999999968e+00 2.469079999999999941e+00 1.141769999999999996e+01 1.855399999999999938e+00 1.230990000000000029e+00 9.122629999999999129e+00 3.872240000000000126e+00 1.219759999999999955e+00 1.053009999999999913e+01 1.946010000000000018e+00 1.284289999999999932e+00 6.728600000000000136e-01 3.914670000000000094e+00 1.250159999999999938e+00 2.085179999999999811e+00 2.043610000000000149e+00 8.956000000000000072e-02 2.831150000000000055e+00 3.865590000000000082e+00 1.869800000000000073e-01 8.368240000000000123e+00 3.891610000000000014e+00 2.522590000000000110e+00 1.399107000000000056e+01 3.869850000000000012e+00 1.363469999999999960e+00 6.315479999999999983e+00 1.995570000000000066e+00 1.220399999999999957e-01 7.007600000000000051e+00 1.941259999999999986e+00 1.302710000000000035e+00 4.865990000000000038e+00 7.445000000000000229e-02 5.167999999999999677e-02 4.281500000000000306e+00
2.124509999999999899e+00 2.651740000000000208e+00 7.110570000000000057e+00 4.088940000000000019e+00 1.539520000000000000e+00 1.065859999999999985e+01 4.028719999999999857e+00 2.519600000000000173e-01 8.491139999999999688e+00 2.012970000000000148e+00 1.209279999999999911e+00 5.350399999999999601e-01 2.636600000000000055e-01 6.814900000000000402e-01 2.161985999999999919e+01 3.983550000000000146e+00 1.304119999999999946e+00 2.099139999999999784e+00 2.079839999999999911e+00 3.412999999999999923e-01 1.133970000000000056e+01 2.088909999999999823e+00 1.296480000000000077e+00 4.963449999999999918e+00 2.060220000000000162e+00 1.532659999999999911e+00 9.229240000000000776e+00 1.160000000000000059e-01 1.418909999999999894e+00 6.344660000000000188e+00 1.982739999999999947e+00 2.532519999999999882e+00 2.765559999999999796e+00 8.372999999999999887e-02 2.576430000000000220e+00 4.266750000000000043e+00
2.067930000000000046e+00 2.089300000000000046e-01 7.066279999999999895e+00 1.155100000000000016e-01 1.533979999999999899e+00 1.058789999999999942e+01 4.077659999999999840e+00 2.471399999999999986e-01 8.470610000000000639e+00 2.003870000000000040e+00 1.248450000000000060e+00 7.045400000000000551e-01 8.139999999999999666e-03 2.455379999999999896e+00 3.579999999999999849e-03 2.776999999999999955e-02 1.294960000000000111e+00 2.122860000000000191e+00 2.114069999999999894e+00 3.251000000000000001e-01 1.129649999999999999e+01 2.045040000000000191e+00 1.374069999999999903e+00 4.939040000000000319e+00 2.093820000000000014e+00 1.494779999999999998e+00 9.185169999999999391e+00 6.968000000000000582e-02 1.412199999999999900e+00 6.352369999999999628e+00 2.029150000000000009e+00 8.727000000000000035e-02 2.819910000000000139e+00 5.328999999999999709e-02 2.575670000000000126e+00 4.240029999999999966e+00
1.971060000000000034e+00 1.673199999999999965e-01 1.128170000000000073e+01 1.913510000000000044e+00 1.265060000000000073e+00 9.140639999999999432e+00 3.893120000000000136e+00 1.385340000000000016e+00 1.062299999999999933e+01 1.925100000000000033e+00 1.261390000000000011e+00 6.472799999999999665e-01 3.697000000000000286e-02 1.232059999999999933e+00 2.168639999999999901e+00 1.953230000000000022e+00 2.443859999999999921e+00 2.743539999999999868e+00 3.878519999999999968e+00 2.538050000000000139e+00 8.505390000000000228e+00 4.062999999999999945e-02 1.591700000000000059e-01 1.403176000000000023e+01 2.350999999999999965e-02 1.351229999999999931e+00 6.279609999999999914e+00 1.851210000000000022e+00 2.517790000000000195e+00 6.995680000000000121e+00 1.893229999999999968e+00 1.201119999999999965e+00 4.929429999999999978e+00 2.427999999999999950e-02 4.007999999999999757e-02 4.142900000000000027e+00
1.824429999999999996e+00 1.142549999999999955e+00 4.959220000000000184e+00 1.684000000000000080e-02 1.305020000000000069e+00 1.896230000000000082e+00 1.967249999999999943e+00 2.154000000000000012e-02 2.795380000000000198e+00 1.874049999999999994e+00 2.139999999999999888e-02 7.090799999999999770e+00 -1.717899999999999983e-01 1.137340000000000018e+00 1.070289999999999964e+01 3.571509999999999962e+00 2.376799999999999802e+00 1.469250000000000078e+01 1.950190000000000090e+00 1.179450000000000109e+00 9.250260000000000815e+00 1.845720000000000027e+00 2.323129999999999917e+00 1.147230000000000061e+01 3.887490000000000112e+00 1.205030000000000046e+00 6.321679999999999744e+00 3.881489999999999885e+00 1.233299999999999952e-01 4.116480000000000139e+00 -9.589000000000000301e-02 -6.539999999999999807e-03 8.459270000000000067e+00 1.957910000000000039e+00 1.087290000000000090e+00 4.949700000000000211e-01
1.967440000000000078e+00 2.156000000000000139e-01 1.142730000000000068e+01 1.898039999999999949e+00 1.222409999999999997e+00 9.175739999999999341e+00 3.882390000000000008e+00 1.445079999999999920e+00 1.076699999999999946e+01 1.949670000000000014e+00 1.280310000000000059e+00 5.367899999999999894e-01 5.802000000000000213e-02 1.212259999999999893e+00 2.133849999999999802e+00 1.997169999999999890e+00 2.404520000000000213e+00 2.692169999999999952e+00 3.849909999999999943e+00 2.530219999999999914e+00 8.556340000000000501e+00 6.128000000000000114e-02 1.891400000000000026e-01 1.388491999999999926e+01 -2.069999999999999965e-02 1.394609999999999905e+00 6.274720000000000297e+00 1.847769999999999913e+00 2.503000000000000114e+00 7.005309999999999704e+00 1.903080000000000105e+00 1.136600000000000055e+00 4.907180000000000319e+00 -2.323000000000000065e-02 2.497850000000000126e+00 4.128169999999999895e+00
2.005370000000000097e+00 2.269799999999999873e-01 7.052419999999999689e+00 4.083829999999999849e+00 1.601220000000000088e+00 1.070170000000000066e+01 4.026279999999999859e+00 3.138299999999999979e-01 8.470010000000000261e+00 2.092229999999999812e+00 1.361620000000000053e+00 4.778399999999999870e-01 3.637199999999999878e-01 7.341800000000000548e-01 2.141269000000000133e+01 3.983119999999999994e+00 1.146989999999999954e+00 2.044389999999999930e+00 2.111530000000000129e+00 2.705470000000000041e+00 1.152439999999999998e+01 2.099000000000000199e+00 1.236390000000000100e+00 4.954860000000000042e+00 1.994729999999999892e+00 1.588750000000000107e+00 9.244210000000000704e+00 4.050709999999999589e+00 1.474380000000000024e+00 6.400190000000000268e+00 1.998199999999999976e+00 2.377909999999999968e+00 2.837680000000000202e+00 9.339999999999999691e-02 2.568700000000000205e+00 4.303460000000000285e+00
1.909019999999999939e+00 1.232269999999999976e+00 4.888959999999999972e+00 -3.670000000000000085e-03 1.249810000000000088e+00 2.009049999999999780e+00 1.969459999999999988e+00 2.145000000000000032e-02 2.772120000000000140e+00 1.847730000000000095e+00 1.532000000000000028e-02 7.010030000000000427e+00 3.805239999999999956e+00 1.230860000000000065e+00 1.073990000000000045e+01 3.692140000000000200e+00 2.370239999999999903e+00 1.486410000000000053e+01 1.857460000000000111e+00 1.175550000000000095e+00 9.174580000000000624e+00 1.743309999999999915e+00 5.000000000000000104e-03 1.139279999999999937e+01 3.905980000000000008e+00 1.156749999999999945e+00 6.287079999999999558e+00 3.993829999999999991e+00 2.374909999999999854e+00 4.158030000000000115e+00 -1.161399999999999932e-01 2.366839999999999833e+00 8.437290000000000845e+00 2.020529999999999937e+00 1.123969999999999914e+00 5.180099999999999705e-01
-5.924999999999999711e-02 7.757000000000000006e-02 1.802890000000000015e+01 1.929489999999999927e+00 4.964999999999999969e-02 1.152590000000000003e+01 1.998010000000000064e+00 1.236660000000000093e+00 7.216099999999999737e-01 3.969949999999999868e+00 1.234809999999999963e+00 2.165639999999999787e+00 2.020950000000000024e+00 2.478070000000000217e+00 7.201439999999999841e+00 5.761000000000000149e-02 2.471169999999999867e+00 4.326480000000000103e+00 3.975119999999999987e+00 2.485300000000000065e+00 8.651350000000000762e+00 3.955810000000000048e+00 1.253430000000000044e+00 6.483999999999999986e+00 1.989109999999999934e+00 1.247409999999999908e+00 5.044929999999999914e+00 1.975060000000000038e+00 1.262399999999999967e+00 9.362750000000000128e+00 1.968779999999999974e+00 1.740999999999999839e-02 2.879109999999999836e+00 2.309999999999999987e-03 1.274820000000000064e+00 1.081170000000000009e+01
1.906590000000000007e+00 1.131490000000000107e+00 4.943970000000000198e+00 4.017450000000000188e+00 1.264000000000000012e+00 2.031210000000000182e+00 1.961249999999999938e+00 2.347659999999999858e+00 2.777229999999999865e+00 1.972580000000000000e+00 2.381099999999999994e+00 7.049590000000000245e+00 -1.614200000000000079e-01 1.128819999999999935e+00 1.054780000000000051e+01 -3.230100000000000193e-01 1.443000000000000012e-02 1.503669999999999973e+01 1.873280000000000056e+00 1.134549999999999947e+00 9.075179999999999580e+00 1.706739999999999924e+00 -3.520000000000000125e-03 1.115339999999999954e+01 3.876949999999999896e+00 1.234450000000000047e+00 6.302740000000000009e+00 3.919119999999999937e+00 5.063999999999999752e-02 4.241609999999999658e+00 3.864669999999999828e+00 2.384399999999999853e+00 8.369440000000000879e+00 2.010699999999999932e+00 1.254939999999999944e+00 7.231100000000000305e-01
1.959850000000000092e+00 1.056600000000000039e-01 1.122610000000000063e+01 1.938560000000000061e+00 1.323409999999999975e+00 9.124650000000000816e+00 -2.199999999999999872e-02 1.325970000000000093e+00 1.052989999999999959e+01 1.950039999999999996e+00 1.240739999999999954e+00 7.011399999999999855e-01 -1.789999999999999925e-02 1.252660000000000107e+00 2.105970000000000120e+00 1.932940000000000103e+00 2.491120000000000001e+00 2.813769999999999882e+00 3.922759999999999803e+00 7.817999999999999949e-02 8.420180000000000220e+00 3.902649999999999952e+00 2.465489999999999959e+00 4.299999999999999894e-04 -1.868999999999999828e-02 1.290680000000000049e+00 6.312100000000000044e+00 1.957689999999999930e+00 6.970999999999999419e-02 7.024239999999999817e+00 1.946949999999999958e+00 1.281079999999999997e+00 4.913490000000000357e+00 -1.600000000000000077e-03 3.941000000000000059e-02 4.208980000000000388e+00
-1.139999999999999954e-03 2.623800000000000021e-01 1.797670000000000101e+01 1.885510000000000019e+00 2.406080000000000219e+00 1.163039999999999985e+01 2.066780000000000062e+00 1.181189999999999962e+00 6.939999999999999503e-01 3.959379999999999900e+00 1.359480000000000022e+00 2.138619999999999965e+00 2.027219999999999800e+00 2.440700000000000092e+00 7.195170000000000066e+00 6.128999999999999726e-02 2.376669999999999838e+00 4.311799999999999855e+00 1.248999999999999937e-02 1.147299999999999986e-01 8.546910000000000451e+00 3.094999999999999835e-02 1.270939999999999959e+00 6.443920000000000314e+00 1.987950000000000106e+00 1.134989999999999943e+00 5.045960000000000001e+00 2.019569999999999865e+00 1.406250000000000000e+00 9.402810000000000556e+00 2.012919999999999821e+00 2.399109999999999854e+00 2.961149999999999949e+00 3.844269999999999854e+00 1.190509999999999957e+00 1.085640000000000072e+01
3.838630000000000209e+00 2.495820000000000149e+00 1.788129999999999953e+01 1.966220000000000079e+00 2.487400000000000055e+00 1.157530000000000037e+01 1.912800000000000056e+00 1.267079999999999984e+00 6.959199999999999831e-01 3.940599999999999881e+00 1.144940000000000069e+00 2.137610000000000010e+00 2.047610000000000152e+00 2.390420000000000211e+00 7.188620000000000232e+00 2.520000000000000018e-02 4.898000000000000270e-02 4.364489999999999981e+00 2.774000000000000077e-02 1.573199999999999876e-01 8.629419999999999646e+00 7.759000000000000619e-02 1.300249999999999906e+00 6.482120000000000104e+00 1.984609999999999985e+00 1.232010000000000050e+00 5.085840000000000138e+00 2.042739999999999778e+00 1.345760000000000067e+00 9.406140000000000612e+00 2.087340000000000195e+00 2.451999999999999957e+00 2.926109999999999989e+00 3.899659999999999904e+00 1.221060000000000034e+00 1.083089999999999975e+01