9.032000000000000098e-03 8.778299999999999992e-02 -2.932870000000000199e-01 -8.280600000000000460e-02 -2.070699999999999971e-02 6.412360000000000282e-01 2.905500000000000096e-02 -8.335299999999999654e-02 -7.024599999999999733e-01 5.980839999999999490e-01 1.430490000000000095e-01 -3.333010000000000139e-01 3.150450000000000195e-01 3.262950000000000017e-01 6.830850000000000533e-01 -4.262469999999999870e-01 -4.222800000000000165e-02 -5.510190000000000365e-01 2.861589999999999967e-01 -1.665750000000000008e-01 -3.471609999999999974e-01 -6.011229999999999629e-01 -1.789439999999999920e-01 2.900349999999999873e-01 8.124620000000000175e-01 -8.697799999999999976e-02 -3.933240000000000069e-01 -6.784329999999999528e-01 -2.171599999999999919e-02 -1.179950000000000027e-01 -7.149600000000000399e-01 -8.724999999999999423e-02 2.580140000000000211e-01 4.537320000000000242e-01 1.306219999999999881e-01 8.661780000000000035e-01
1.853660000000000030e-01 1.421149999999999913e-01 2.376999999999999946e-02 2.489500000000000046e-01 -3.413900000000000268e-02 3.666119999999999934e-01 2.451250000000000095e-01 -1.142129999999999951e-01 -3.178289999999999726e-01 -2.607030000000000181e-01 2.224160000000000026e-01 -3.512440000000000007e-01 -1.001380000000000048e-01 5.072990000000000554e-01 8.921600000000000363e-02 1.744789999999999952e-01 -2.336519999999999986e-01 -2.538090000000000068e-01 -4.130610000000000115e-01 -2.142600000000000060e-01 5.963370000000000060e-01 2.116099999999999925e-01 -1.895350000000000090e-01 -4.154479999999999840e-01 -1.778859999999999886e-01 4.151699999999999835e-02 2.197860000000000091e-01 7.330000000000000361e-04 -1.519610000000000127e-01 4.351130000000000275e-01 -1.635669999999999902e-01 -1.634859999999999924e-01 -6.650439999999999685e-01 4.909299999999999775e-02 1.879000000000000115e-01 2.725400000000000045e-01
3.353899999999999937e-02 -6.467399999999999538e-02 1.393045000000000089e+00 1.871899999999999953e-02 -4.006200000000000039e-02 1.585799999999999987e-01 -7.028600000000000125e-02 2.541799999999999962e-02 1.052262000000000031e+00 3.556000000000000133e-03 -1.539699999999999923e-02 -1.039743000000000084e+00 -2.072299999999999837e-02 2.018299999999999955e-02 -1.665870000000000128e-01 2.245499999999999927e-02 -6.204999999999999578e-03 -9.478300000000000614e-02 3.509299999999999919e-02 2.355099999999999902e-02 3.444900000000000045e-02 1.693999999999999976e-03 5.890399999999999803e-02 -1.370511999999999952e+00 -9.754599999999999382e-02 5.161899999999999822e-02 8.131800000000000139e-02 6.151199999999999724e-02 -4.809399999999999786e-02 -9.465300000000000102e-02 5.314399999999999680e-02 -3.045799999999999896e-02 6.740000000000000114e-04 -4.115800000000000014e-02 2.521500000000000130e-02 4.594899999999999679e-02
1.687790000000000123e-01 -3.663799999999999835e-01 -2.830820000000000003e-01 -2.045619999999999938e-01 -3.347280000000000255e-01 -4.658970000000000056e-01 3.473800000000000221e-01 3.810779999999999723e-01 -2.268509999999999971e-01 -4.415000000000000174e-02 5.409200000000000119e-02 7.106580000000000119e-01 -4.177199999999999663e-02 -3.529399999999999898e-02 2.311199999999999921e-01 7.691299999999999526e-02 2.376999999999999946e-01 -7.605669999999999931e-01 4.749149999999999761e-01 -1.768999999999999956e-03 4.283109999999999973e-01 -2.527139999999999942e-01 -8.586900000000000088e-02 5.328399999999999803e-01 -6.066679999999999851e-01 3.893739999999999979e-01 2.671300000000000063e-02 2.087849999999999984e-01 1.909730000000000039e-01 -2.543579999999999730e-01 1.324110000000000009e-01 -1.114030000000000020e-01 1.924450000000000049e-01 -2.593159999999999910e-01 -3.177740000000000009e-01 -1.313320000000000043e-01
-6.295650000000000412e-01 -6.209299999999999820e-01 -7.738120000000000553e-01 3.209020000000000206e-01 1.951140000000000096e-01 5.286220000000000363e-01 8.383329999999999949e-01 4.678579999999999961e-01 -3.456670000000000020e-01 -8.776570000000000205e-01 -3.541670000000000096e-01 -1.009199999999999958e-01 3.067540000000000266e-01 2.496659999999999990e-01 -4.049200000000000021e-02 5.859269999999999756e-01 3.189400000000000013e-01 -7.982390000000000319e-01 -8.882039999999999935e-01 2.445209999999999884e-01 3.737719999999999931e-01 2.958379999999999899e-01 -2.892489999999999783e-01 5.598210000000000131e-01 -8.994229999999999725e-01 1.139000000000000082e-02 3.956660000000000177e-01 2.683719999999999994e-01 -5.221240000000000325e-01 2.531630000000000269e-01 7.270410000000000483e-01 3.515940000000000176e-01 -4.658800000000000163e-01 -4.831599999999999784e-02 -5.261300000000000004e-02 4.139680000000000026e-01
4.026120000000000254e-01 -7.681200000000000527e-02 1.146174000000000026e+00 -4.041989999999999750e-01 9.419399999999999995e-02 7.032460000000000377e-01 -4.578530000000000100e-01 9.728199999999999348e-02 7.087609999999999744e-01 9.324100000000000443e-02 -2.711999999999999827e-02 -1.013516000000000084e+00 6.032920000000000504e-01 9.016599999999999615e-02 -2.288550000000000029e-01 -5.760279999999999845e-01 7.406500000000000583e-02 -4.438570000000000015e-01 6.872040000000000370e-01 -1.186279999999999973e-01 1.682879999999999932e-01 -2.066419999999999924e-01 4.349499999999999894e-02 -1.260491999999999946e+00 5.350939999999999586e-01 -7.878000000000000280e-02 -3.961450000000000249e-01 -6.425750000000000073e-01 9.748600000000000321e-02 -9.597600000000000575e-02 -1.375520000000000076e-01 -2.803039999999999976e-01 4.382690000000000197e-01 1.034059999999999979e-01 8.495600000000000374e-02 2.741020000000000123e-01
1.370020000000000127e-01 -1.932800000000000143e-02 -4.359529999999999794e-01 6.999199999999999866e-02 -4.012799999999999701e-02 8.245280000000000387e-01 -4.035000000000000392e-03 9.433700000000000419e-02 1.920630000000000115e-01 -2.063039999999999874e-01 -1.030599999999999919e-02 -7.835990000000000455e-01 1.755200000000000093e-01 2.430229999999999890e-01 -7.534929999999999684e-01 3.579590000000000272e-01 -2.735299999999999884e-02 -1.332780000000000076e-01 -1.126640000000000003e-01 -1.265439999999999898e-01 5.252040000000000042e-01 2.151199999999999987e-02 -7.677799999999999903e-02 3.395619999999999750e-01 -7.320899999999999630e-02 -1.169850000000000056e-01 5.005589999999999762e-01 -5.177500000000000158e-02 1.228560000000000069e-01 -2.836600000000000232e-01 -3.506239999999999912e-01 -1.306779999999999886e-01 7.035999999999999720e-03 3.662499999999999784e-02 8.788400000000000378e-02 1.030000000000000100e-03
7.289000000000000340e-03 -1.713599999999999846e-02 7.685500000000000664e-02 2.924399999999999916e-02 -3.265999999999999806e-03 -2.181279999999999886e-01 -5.596000000000000280e-03 1.250399999999999949e-02 1.664099999999999954e-02 9.112999999999999573e-03 -1.038599999999999940e-02 1.868200000000000069e-02 -7.298399999999999332e-02 2.734500000000000125e-02 1.023114000000000079e+00 -1.254820000000000102e-01 1.072700000000000042e-02 -9.740999999999999659e-01 4.029900000000000149e-02 -1.219399999999999998e-02 2.728820000000000134e-01 1.567099999999999882e-01 -8.203000000000000222e-03 9.704819999999999558e-01 -1.039400000000000046e-02 9.783999999999999295e-03 -3.535399999999999654e-02 -9.136000000000000024e-03 1.546499999999999958e-02 -9.137599999999999889e-02 -3.028099999999999889e-02 5.967000000000000082e-03 -6.813999999999999745e-03 1.121699999999999954e-02 -3.060600000000000126e-02 -1.052883999999999931e+00
1.047239999999999976e-01 -5.367500000000000049e-02 1.270814000000000110e+00 2.328759999999999997e-01 1.655429999999999957e-01 3.001019999999999799e-01 -2.136609999999999898e-01 1.813400000000000081e-02 9.260800000000000143e-01 1.195269999999999944e-01 1.172180000000000027e-01 -6.668490000000000251e-01 -2.454270000000000063e-01 -1.420000000000000092e-04 -3.900250000000000106e-01 1.278900000000000002e-02 8.982400000000000106e-02 -5.502479999999999594e-01 -1.868740000000000123e-01 -1.245829999999999993e-01 2.032150000000000067e-01 1.920699999999999838e-02 -1.104229999999999934e-01 -1.201211999999999946e+00 -1.866819999999999868e-01 -1.747000000000000072e-03 -4.913200000000000206e-02 2.965409999999999990e-01 -5.166300000000000059e-02 1.001770000000000022e-01 -1.852910000000000112e-01 -1.636450000000000127e-01 -6.597300000000000386e-02 2.322720000000000062e-01 1.151599999999999985e-01 1.230509999999999937e-01
-4.991999999999999910e-02 2.237799999999999859e-02 1.171044999999999892e+00 4.209200000000000164e-01 2.232999999999999916e-02 5.437269999999999603e-01 -7.470000000000000077e-03 7.290399999999999658e-02 6.985529999999999795e-01 -6.041239999999999943e-01 -2.732220000000000204e-01 -7.858300000000000007e-02 -1.064289999999999958e-01 2.774750000000000272e-01 -3.815589999999999815e-01 2.648490000000000011e-01 -1.944249999999999867e-01 -8.403869999999999951e-01 -5.322500000000000009e-01 -3.180199999999999694e-02 -1.884369999999999934e-01 5.183069999999999622e-01 2.898270000000000013e-01 -1.147540000000000004e+00 -4.013030000000000208e-01 -3.251330000000000053e-01 7.948370000000000157e-01 6.139259999999999717e-01 2.372599999999999987e-01 3.713960000000000039e-01 -4.671589999999999909e-01 4.859780000000000211e-01 -1.023999999999999954e-03 3.506540000000000212e-01 -5.835690000000000044e-01 -9.420269999999999477e-01
-4.195720000000000005e-01 -1.674559999999999937e-01 -1.004737999999999909e+00 7.837060000000000137e-01 7.431999999999999718e-02 1.669420000000000071e-01 4.166190000000000171e-01 1.546879999999999922e-01 -6.469120000000000426e-01 9.676300000000000179e-02 -1.559450000000000003e-01 4.551819999999999755e-01 -9.113729999999999887e-01 5.643939999999999513e-01 -6.609359999999999680e-01 -6.108540000000000081e-01 3.601579999999999782e-01 -6.788220000000000365e-01 -7.469000000000000639e-02 7.963249999999999496e-01 7.543379999999999530e-01 2.450980000000000103e-01 -6.093830000000000080e-01 -3.818699999999999872e-01 8.505380000000000162e-01 -3.408109999999999751e-01 -3.220109999999999917e-01 7.843139999999999556e-01 -6.701930000000000387e-01 1.422620999999999913e+00 -8.874400000000000344e-02 1.853670000000000040e-01 5.120270000000000099e-01 -1.071804999999999897e+00 -1.914659999999999973e-01 3.841789999999999927e-01
5.747400000000000286e-01 4.742739999999999734e-01 -8.384690000000000198e-01 3.916100000000000136e-01 -5.250489999999999879e-01 9.327870000000000328e-01 1.095226999999999951e+00 6.870169999999999888e-01 -4.251989999999999936e-01 -1.549169999999999991e-01 1.660490000000000022e-01 -5.123830000000000329e-01 -6.268899999999999473e-02 4.257199999999999873e-02 -6.280630000000000379e-01 4.488829999999999765e-01 -2.743419999999999748e-01 -9.305569999999999675e-01 -2.617820000000000147e-01 3.321569999999999800e-01 6.752719999999999834e-01 2.578900000000000081e-01 1.160100000000000020e-01 4.354529999999999790e-01 -1.118073000000000095e+00 -6.815839999999999677e-01 1.214598000000000066e+00 -9.203299999999999814e-01 -3.856080000000000063e-01 -5.556740000000000013e-01 4.432300000000000129e-02 -1.055159999999999987e-01 -6.362400000000000277e-01 -2.948830000000000062e-01 1.540209999999999912e-01 1.268475000000000019e+00
-2.991409999999999902e-01 -5.382409999999999695e-01 1.187095999999999929e+00 -4.175240000000000062e-01 -4.761710000000000109e-01 -5.956839999999999913e-01 5.079749999999999543e-01 5.694839999999999902e-01 -1.272858999999999963e+00 -6.565689999999999582e-01 3.345200000000000257e-02 -3.709699999999999803e-02 6.806800000000000350e-02 -3.607599999999999696e-02 7.181539999999999591e-01 2.035119999999999985e-01 2.920730000000000270e-01 -9.311230000000000340e-01 -2.765310000000000268e-01 1.105430000000000024e-01 3.912059999999999982e-01 -2.087890000000000024e-01 -1.075040000000000023e-01 7.265460000000000251e-01 5.556900000000000034e-02 3.054230000000000000e-01 -1.653630000000000100e-01 4.474770000000000136e-01 3.426810000000000134e-01 2.937660000000000271e-01 9.371169999999999778e-01 -1.604079999999999950e-01 -8.374099999999999600e-02 -3.611639999999999850e-01 -3.352570000000000272e-01 -2.309009999999999951e-01
4.817000000000000101e-03 -1.263509999999999911e-01 7.222099999999999353e-02 -1.243459999999999982e-01 -1.322949999999999959e-01 -3.711369999999999947e-01 -4.050499999999999934e-02 2.145899999999999891e-02 -8.354499999999999427e-02 -3.053710000000000035e-01 -6.467599999999999738e-02 1.078179999999999972e-01 6.097299999999999942e-02 -3.509299999999999919e-02 7.122469999999999635e-01 -2.785690000000000111e-01 -5.722999999999999789e-03 -9.597769999999999913e-01 -6.557100000000000428e-02 1.514700000000000074e-02 3.643790000000000084e-01 8.391300000000000148e-02 1.063300000000000009e-02 9.017870000000000053e-01 3.223799999999999999e-01 4.178699999999999776e-02 -1.435589999999999922e-01 -4.976000000000000388e-03 1.830430000000000113e-01 1.716330000000000078e-01 5.533699999999999730e-02 2.904299999999999937e-02 2.090009999999999923e-01 2.919169999999999821e-01 6.302499999999999769e-02 -9.810670000000000224e-01
4.793330000000000091e-01 3.845129999999999937e-01 2.228380000000000083e-01 -5.365099999999999730e-02 8.290000000000000493e-03 1.208319999999999950e-01 -5.672699999999999965e-02 -1.957230000000000081e-01 -2.949080000000000035e-01 -3.996020000000000127e-01 -1.704700000000000104e-01 1.908299999999999927e-02 -3.847099999999999964e-01 1.073390000000000039e-01 1.225778999999999952e+00 4.278770000000000073e-01 -1.291730000000000100e-01 -1.022941000000000100e+00 -8.930499999999999550e-02 5.686599999999999988e-02 1.086440000000000045e-01 5.156269999999999465e-01 -1.878900000000000015e-02 1.037174000000000040e+00 2.804200000000000026e-01 1.661539999999999961e-01 -4.044320000000000137e-01 -2.717849999999999988e-01 -2.836190000000000100e-01 5.564500000000000002e-02 5.478399999999999936e-02 -1.282780000000000031e-01 -1.148060000000000053e-01 -5.022609999999999575e-01 2.028890000000000138e-01 -9.529079999999999773e-01
3.360300000000000092e-02 -5.954000000000000091e-03 1.037406999999999968e+00 1.375750000000000028e-01 2.449629999999999863e-01 6.176439999999999708e-01 -1.052889999999999937e-01 -9.943000000000000449e-03 6.090010000000000145e-01 8.785600000000000354e-02 1.878940000000000055e-01 -3.563749999999999973e-01 -2.508900000000000019e-01 -1.377300000000000052e-02 -6.112809999999999633e-01 -5.581499999999999656e-02 1.334120000000000028e-01 -7.378320000000000434e-01 -9.164100000000000024e-02 -1.827209999999999945e-01 4.505140000000000255e-01 8.440100000000000380e-02 -2.004440000000000111e-01 -9.874309999999999476e-01 -5.459300000000000264e-02 -5.034600000000000186e-02 -9.506399999999999573e-02 1.937510000000000066e-01 -3.166200000000000264e-02 2.982210000000000139e-01 -2.332960000000000034e-01 -2.035319999999999907e-01 -1.834129999999999927e-01 2.543389999999999818e-01 1.321060000000000012e-01 -4.139099999999999724e-02
2.513500000000000109e-02 -1.012979999999999992e-01 -1.466499999999999922e-02 -1.422999999999999959e-02 2.049999999999999956e-04 9.455909999999999593e-01 6.198000000000000384e-03 5.804900000000000337e-02 -5.298699999999999938e-02 4.141100000000000336e-02 6.424000000000000023e-03 -9.240969999999999462e-01 1.718199999999999936e-02 1.527509999999999979e-01 -6.871760000000000090e-01 -1.345999999999999974e-03 6.086899999999999950e-02 -1.902890000000000137e-01 -3.855599999999999999e-02 -1.366759999999999919e-01 7.149529999999999497e-01 8.745799999999999408e-02 -9.260100000000000275e-02 7.204299999999999593e-02 -7.002999999999999677e-03 -6.468899999999999650e-02 1.210849999999999982e-01 -3.522499999999999937e-02 8.770799999999999430e-02 -2.724999999999999992e-03 -5.499999999999999681e-03 -8.791799999999999615e-02 1.024430000000000063e-01 -7.552300000000000679e-02 1.171780000000000044e-01 -8.417700000000000182e-02
-1.007779999999999898e+00 -8.811199999999999588e-02 -3.071909999999999918e-01 3.846809999999999952e-01 -3.314409999999999856e-01 5.513470000000000315e-01 9.236320000000000086e-01 1.901470000000000105e-01 1.029041000000000095e+00 -4.006790000000000074e-01 -7.700600000000000500e-02 -1.928489999999999926e-01 3.080000000000000099e-02 -4.162799999999999834e-02 -3.690120000000000067e-01 8.412610000000000365e-01 1.744719999999999882e-01 7.087999999999999683e-03 -4.235050000000000203e-01 3.254540000000000211e-01 1.254570000000000130e-01 3.152980000000000227e-01 2.474840000000000095e-01 5.816759999999999708e-01 -4.475959999999999939e-01 -4.343389999999999751e-01 8.869810000000000194e-01 6.772000000000000242e-01 1.165000000000000020e-03 -2.645859999999999879e-01 -2.053220000000000045e-01 1.050630000000000036e-01 -9.167910000000000226e-01 -6.879920000000000480e-01 -7.125900000000000289e-02 -1.131161000000000083e+00
-7.224800000000000666e-02 2.079900000000000151e-02 -5.575799999999999645e-01 8.905699999999999728e-02 -3.018799999999999956e-02 5.883030000000000204e-01 7.529600000000000182e-02 -9.582999999999999505e-03 -6.852800000000000002e-01 3.005700000000000038e-02 3.214399999999999896e-02 -2.439379999999999882e-01 -9.963700000000000334e-02 1.399599999999999976e-02 1.402269999999999905e-01 -2.867899999999999963e-02 1.605399999999999883e-02 -1.298980000000000135e-01 1.150329999999999964e-01 2.689000000000000071e-02 -1.867659999999999876e-01 5.242000000000000132e-02 -1.200200000000000052e-02 -5.651099999999999873e-02 3.540999999999999703e-02 -1.761000000000000065e-02 5.932899999999999979e-02 -5.118199999999999833e-02 -1.180199999999999999e-02 2.281259999999999954e-01 -5.798500000000000182e-02 -3.156300000000000078e-02 1.865580000000000016e-01 -8.754000000000000670e-02 2.866000000000000058e-03 6.574299999999999589e-01
3.353899999999999937e-02 -6.467399999999999538e-02 1.393045000000000089e+00 1.871899999999999953e-02 -4.006200000000000039e-02 1.585799999999999987e-01 -7.028600000000000125e-02 2.541799999999999962e-02 1.052262000000000031e+00 3.556000000000000133e-03 -1.539699999999999923e-02 -1.039743000000000084e+00 -2.072299999999999837e-02 2.018299999999999955e-02 -1.665870000000000128e-01 2.245499999999999927e-02 -6.204999999999999578e-03 -9.478300000000000614e-02 3.509299999999999919e-02 2.355099999999999902e-02 3.444900000000000045e-02 1.693999999999999976e-03 5.890399999999999803e-02 -1.370511999999999952e+00 -9.754599999999999382e-02 5.161899999999999822e-02 8.131800000000000139e-02 6.151199999999999724e-02 -4.809399999999999786e-02 -9.465300000000000102e-02 5.314399999999999680e-02 -3.045799999999999896e-02 6.740000000000000114e-04 -4.115800000000000014e-02 2.521500000000000130e-02 4.594899999999999679e-02
-5.868379999999999708e-01 -6.599099999999999411e-02 7.947079999999999700e-01 4.619570000000000065e-01 6.924709999999999477e-01 8.590780000000000083e-01 3.837800000000000100e-01 2.748450000000000060e-01 1.002922000000000091e+00 -1.340500000000000025e-02 -2.534440000000000026e-01 -8.528810000000000002e-01 7.302589999999999915e-01 1.879429999999999990e-01 -2.207349999999999868e-01 -6.785679999999999490e-01 -3.158210000000000184e-01 -5.203699999999999992e-01 2.539100000000000246e-01 -8.004269999999999996e-01 6.173899999999999944e-01 -1.274100000000000059e-02 3.963349999999999929e-01 -1.105855000000000032e+00 8.490600000000000369e-01 -4.739999999999999747e-04 1.980000000000000163e-02 -1.236993999999999927e+00 -2.942819999999999880e-01 -2.853930000000000078e-01 7.091119999999999646e-01 5.225099999999999884e-02 6.215319999999999734e-01 -8.595300000000000162e-01 1.265950000000000131e-01 -9.301970000000000516e-01
-4.811239999999999961e-01 -5.296800000000000119e-02 -2.041560000000000041e-01 -2.317869999999999930e-01 3.308099999999999929e-02 6.635619999999999852e-01 5.810419999999999474e-01 1.574290000000000134e-01 1.366610000000000047e-01 1.243589999999999973e-01 3.237769999999999815e-01 -1.425849999999999895e-01 -1.641039999999999999e-01 -2.603759999999999963e-01 -7.724809999999999732e-01 -4.940900000000000153e-02 5.202999999999999986e-02 -1.539069999999999883e-01 1.154570000000000041e-01 -1.426020000000000065e-01 7.262119999999999687e-01 -1.016399999999999942e-02 2.263280000000000014e-01 -2.772609999999999797e-01 -8.390599999999999448e-02 -2.281650000000000067e-01 1.797239999999999949e-01 2.568000000000000144e-02 3.924500000000000210e-02 3.733400000000000052e-01 3.592159999999999798e-01 -1.023160000000000042e-01 1.012279999999999985e-01 -1.852610000000000090e-01 -4.546200000000000241e-02 -6.303370000000000362e-01
2.513500000000000109e-02 -1.012979999999999992e-01 -1.466499999999999922e-02 -1.422999999999999959e-02 2.049999999999999956e-04 9.455909999999999593e-01 6.198000000000000384e-03 5.804900000000000337e-02 -5.298699999999999938e-02 4.141100000000000336e-02 6.424000000000000023e-03 -9.240969999999999462e-01 1.718199999999999936e-02 1.527509999999999979e-01 -6.871760000000000090e-01 -1.345999999999999974e-03 6.086899999999999950e-02 -1.902890000000000137e-01 -3.855599999999999999e-02 -1.366759999999999919e-01 7.149529999999999497e-01 8.745799999999999408e-02 -9.260100000000000275e-02 7.204299999999999593e-02 -7.002999999999999677e-03 -6.468899999999999650e-02 1.210849999999999982e-01 -3.522499999999999937e-02 8.770799999999999430e-02 -2.724999999999999992e-03 -5.499999999999999681e-03 -8.791799999999999615e-02 1.024430000000000063e-01 -7.552300000000000679e-02 1.171780000000000044e-01 -8.417700000000000182e-02
-2.818570000000000242e-01 -2.186410000000000020e-01 1.357007000000000074e+00 1.820990000000000109e-01 2.535930000000000129e-01 2.308669999999999889e-01 2.496480000000000088e-01 1.192099999999999931e-02 8.509219999999999562e-01 9.421950000000000047e-01 -2.497900000000000120e-02 -9.166840000000000543e-01 -6.712690000000000046e-01 2.246199999999999933e-02 -1.696833000000000036e+00 4.915640000000000009e-01 1.283890000000000031e-01 3.574760000000000160e-01 -3.512390000000000234e-01 3.400299999999999850e-02 -6.257620000000000404e-01 -6.875620000000000065e-01 -6.584700000000000275e-02 -9.813450000000000228e-01 -1.738175000000000026e+00 -2.996019999999999794e-01 4.537439999999999807e-01 1.375302999999999942e+00 9.708300000000000263e-02 7.275129999999999653e-01 1.273506999999999945e+00 2.661839999999999762e-01 -7.322119999999999740e-01 -7.842130000000000489e-01 -2.045639999999999958e-01 9.753079999999999528e-01
4.907830000000000248e-01 4.820070000000000188e-01 -1.785470000000000113e-01 -4.740849999999999786e-01 -6.026600000000000013e-02 -2.349980000000000124e-01 -3.459900000000000198e-01 -1.468700000000000006e-01 -6.334779999999999855e-01 -7.729400000000000159e-02 -1.561919999999999975e-01 1.486359999999999904e-01 5.174100000000000227e-02 1.722299999999999873e-02 4.522820000000000173e-01 3.459539999999999837e-01 -1.701950000000000129e-01 -4.364080000000000181e-01 -2.307359999999999967e-01 4.261000000000000204e-02 4.655110000000000081e-01 2.779869999999999841e-01 6.341099999999999515e-02 5.886160000000000281e-01 1.264840000000000131e-01 1.558279999999999943e-01 -2.332029999999999936e-01 1.887629999999999864e-01 -3.546690000000000120e-01 -1.693000000000000060e-03 -2.914849999999999941e-01 -8.361699999999999688e-02 4.280909999999999993e-01 -6.212199999999999667e-02 2.107300000000000006e-01 -3.648089999999999944e-01
-3.502970000000000250e-01 -1.774640000000000106e-01 1.166193000000000035e+00 6.286600000000000521e-02 3.739359999999999906e-01 6.632980000000000542e-01 3.221990000000000132e-01 -2.605400000000000077e-02 3.342019999999999991e-01 7.960570000000000146e-01 -3.147099999999999898e-02 -5.704900000000000526e-01 -3.329340000000000077e-01 -2.723799999999999832e-02 -1.885747000000000062e+00 -7.219999999999999855e-03 1.987810000000000132e-01 2.455880000000000007e-01 -1.321050000000000002e-01 -3.249799999999999911e-02 -5.062640000000000473e-01 -6.141969999999999930e-01 -1.050920000000000049e-01 -8.860869999999999580e-01 -1.051717999999999931e+00 -4.644849999999999812e-01 4.607040000000000024e-01 9.118849999999999456e-01 1.461810000000000054e-01 7.471919999999999673e-01 7.802210000000000534e-01 4.156119999999999814e-01 -5.200759999999999827e-01 -3.847590000000000177e-01 -2.702080000000000037e-01 7.514870000000000161e-01
5.482860000000000511e-01 -1.914190000000000058e-01 6.030609999999999582e-01 -2.114779999999999993e-01 -3.201959999999999806e-01 4.889620000000000077e-01 -4.113140000000000129e-01 9.121100000000000041e-02 6.910770000000000524e-01 6.916899999999999438e-02 -7.040200000000000624e-02 5.493699999999999972e-02 -2.913089999999999846e-01 -7.052999999999999547e-02 -1.889619999999999911e-01 2.655710000000000015e-01 1.840440000000000131e-01 -3.402959999999999874e-01 -1.272260000000000058e-01 3.524050000000000238e-01 5.384400000000000297e-02 -2.107459999999999889e-01 3.884690000000000087e-01 -1.249979999999999980e-01 6.269670000000000520e-01 -3.099620000000000153e-01 4.415979999999999905e-01 -3.272570000000000201e-01 -2.674599999999999894e-02 -2.314299999999999968e-01 2.225570000000000048e-01 1.110519999999999979e-01 -6.230229999999999935e-01 -1.532209999999999961e-01 -1.379269999999999941e-01 -8.247700000000000031e-01
1.275739999999999930e-01 -1.480889999999999984e-01 7.465299999999999714e-02 -1.007470000000000032e-01 -1.478089999999999959e-01 -5.667539999999999800e-01 -1.385730000000000017e-01 -6.260000000000000373e-04 -5.061149999999999816e-01 1.080000000000000057e-02 -1.469820000000000015e-01 3.685990000000000100e-01 1.445180000000000076e-01 -7.854600000000000470e-02 4.524500000000000050e-02 1.633400000000000130e-02 -1.046340000000000048e-01 -6.207329999999999792e-01 -2.059000000000000066e-02 1.600800000000000139e-02 6.090119999999999978e-01 1.109300000000000043e-02 3.282700000000000201e-02 5.694529999999999870e-01 5.350900000000000101e-02 1.361890000000000045e-01 5.331299999999999928e-02 2.116499999999999979e-02 2.076639999999999875e-01 -1.389410000000000089e-01 -1.165500000000000008e-01 4.571100000000000163e-02 3.899650000000000061e-01 -8.533999999999999919e-03 1.882880000000000109e-01 -2.776959999999999984e-01
-7.224800000000000666e-02 2.079900000000000151e-02 -5.575799999999999645e-01 8.905699999999999728e-02 -3.018799999999999956e-02 5.883030000000000204e-01 7.529600000000000182e-02 -9.582999999999999505e-03 -6.852800000000000002e-01 3.005700000000000038e-02 3.214399999999999896e-02 -2.439379999999999882e-01 -9.963700000000000334e-02 1.399599999999999976e-02 1.402269999999999905e-01 -2.867899999999999963e-02 1.605399999999999883e-02 -1.298980000000000135e-01 1.150329999999999964e-01 2.689000000000000071e-02 -1.867659999999999876e-01 5.242000000000000132e-02 -1.200200000000000052e-02 -5.651099999999999873e-02 3.540999999999999703e-02 -1.761000000000000065e-02 5.932899999999999979e-02 -5.118199999999999833e-02 -1.180199999999999999e-02 2.281259999999999954e-01 -5.798500000000000182e-02 -3.156300000000000078e-02 1.865580000000000016e-01 -8.754000000000000670e-02 2.866000000000000058e-03 6.574299999999999589e-01
-1.727289999999999937e-01 3.075390000000000068e-01 -3.328809999999999825e-01 -4.266829999999999790e-01 -2.567349999999999910e-01 6.430339999999999945e-01 4.256159999999999943e-01 3.688819999999999877e-01 8.895420000000000549e-01 -1.380840999999999985e+00 2.346699999999999828e-02 -6.520660000000000345e-01 -1.145674000000000081e+00 3.882900000000000240e-01 4.451169999999999849e-01 -7.792599999999999527e-01 1.515330000000000010e-01 -1.298305000000000042e+00 -5.883450000000000069e-01 3.481119999999999770e-01 7.601069999999999771e-01 1.127790999999999988e+00 -4.303379999999999983e-01 1.245654999999999957e+00 9.553139999999999965e-01 -1.940099999999999880e-01 -3.755200000000000204e-02 -5.922700000000000187e-02 -2.618210000000000259e-01 -9.501840000000000286e-01 1.242123000000000088e+00 -1.088920000000000027e-01 7.458989999999999787e-01 8.019140000000000157e-01 -3.360259999999999914e-01 -1.458366000000000051e+00
3.353899999999999937e-02 -6.467399999999999538e-02 1.393045000000000089e+00 1.871899999999999953e-02 -4.006200000000000039e-02 1.585799999999999987e-01 -7.028600000000000125e-02 2.541799999999999962e-02 1.052262000000000031e+00 3.556000000000000133e-03 -1.539699999999999923e-02 -1.039743000000000084e+00 -2.072299999999999837e-02 2.018299999999999955e-02 -1.665870000000000128e-01 2.245499999999999927e-02 -6.204999999999999578e-03 -9.478300000000000614e-02 3.509299999999999919e-02 2.355099999999999902e-02 3.444900000000000045e-02 1.693999999999999976e-03 5.890399999999999803e-02 -1.370511999999999952e+00 -9.754599999999999382e-02 5.161899999999999822e-02 8.131800000000000139e-02 6.151199999999999724e-02 -4.809399999999999786e-02 -9.465300000000000102e-02 5.314399999999999680e-02 -3.045799999999999896e-02 6.740000000000000114e-04 -4.115800000000000014e-02 2.521500000000000130e-02 4.594899999999999679e-02
2.166180000000000050e-01 -7.025390000000000246e-01 -5.510490000000000110e-01 1.383939999999999892e-01 1.850890000000000035e-01 3.686320000000000152e-01 -5.068639999999999812e-01 5.376049999999999995e-01 -2.127060000000000062e-01 3.463010000000000255e-01 -4.952969999999999873e-01 -4.431479999999999864e-01 1.520350000000000035e-01 1.321630000000000027e-01 1.284069999999999934e-01 -1.770730000000000082e-01 3.298170000000000268e-01 -5.082099999999999812e-02 -1.701969999999999872e-01 5.212300000000000266e-02 8.195700000000000207e-01 -1.114580000000000015e-01 -1.189970000000000055e-01 -1.199979999999999936e-01 1.715639999999999943e-01 9.595800000000000163e-02 3.160760000000000236e-01 -5.091930000000000067e-01 -3.543490000000000251e-01 1.582780000000000020e-01 3.961200000000000138e-02 3.966180000000000261e-01 -7.560299999999999798e-01 4.102609999999999868e-01 -5.819099999999999967e-02 3.427879999999999816e-01