-4.462062243999999822e+01
-4.869103874999999704e+01
-4.775639074000000051e+01
-4.621897180999999932e+01
-4.608200073999999802e+01
-4.767425776000000326e+01
-4.826754439999999846e+01
