2.551813668999999951e+00 0.000000000000000000e+00 0.000000000000000000e+00 5.001130899999999685e-02 4.432242364999999573e+00 0.000000000000000000e+00 3.403548350000000222e-01 -4.377240700000000206e-01 2.093396346899999827e+01
2.499011258999999985e+00 0.000000000000000000e+00 0.000000000000000000e+00 7.259680500000000036e-02 4.423360993000000185e+00 0.000000000000000000e+00 -5.307931899999999981e-02 1.473399059999999927e-01 1.313031396400000084e+01
2.653784212999999781e+00 0.000000000000000000e+00 0.000000000000000000e+00 -1.040136740000000004e-01 4.844485875000000163e+00 0.000000000000000000e+00 -3.926730420000000277e-01 -3.700501359999999740e-01 1.852413589000000016e+01
2.784634988000000089e+00 0.000000000000000000e+00 0.000000000000000000e+00 -9.766696699999999343e-02 4.691332154999999560e+00 0.000000000000000000e+00 3.894108880000000106e-01 2.834419479999999991e-01 1.724830803800000112e+01
2.404009181000000162e+00 0.000000000000000000e+00 0.000000000000000000e+00 -1.448263299999999996e-02 4.291181053999999939e+00 0.000000000000000000e+00 -1.187134700000000015e-01 -2.290165859999999942e-01 1.305852309900000030e+01
2.693252846000000034e+00 0.000000000000000000e+00 0.000000000000000000e+00 -7.147605999999999925e-03 4.756320268999999712e+00 0.000000000000000000e+00 -4.774218499999999948e-02 5.319656379999999629e-01 1.965969023799999960e+01
2.551813668999999951e+00 0.000000000000000000e+00 0.000000000000000000e+00 5.001130899999999685e-02 4.432242364999999573e+00 0.000000000000000000e+00 3.403548350000000222e-01 -4.377240700000000206e-01 2.093396346899999827e+01
2.404009181000000162e+00 0.000000000000000000e+00 0.000000000000000000e+00 -1.448263299999999996e-02 4.291181053999999939e+00 0.000000000000000000e+00 -1.187134700000000015e-01 -2.290165859999999942e-01 1.305852309900000030e+01
2.393975123000000149e+00 0.000000000000000000e+00 0.000000000000000000e+00 5.133579399999999709e-02 4.357656332000000354e+00 0.000000000000000000e+00 5.164128829999999892e-01 4.204467270000000201e-01 2.062856556099999850e+01
2.714220493000000012e+00 0.000000000000000000e+00 0.000000000000000000e+00 -7.233779699999999535e-02 4.511078085000000293e+00 0.000000000000000000e+00 1.109255039999999942e-01 4.271248799999999846e-01 2.111063529400000149e+01
2.540686916999999934e+00 0.000000000000000000e+00 0.000000000000000000e+00 5.437225799999999970e-02 4.504685572999999721e+00 0.000000000000000000e+00 -1.598003970000000107e-01 9.988181699999999774e-02 1.336830116800000035e+01
2.404009181000000162e+00 0.000000000000000000e+00 0.000000000000000000e+00 -1.448263299999999996e-02 4.291181053999999939e+00 0.000000000000000000e+00 -1.187134700000000015e-01 -2.290165859999999942e-01 1.305852309900000030e+01
2.664375237999999868e+00 0.000000000000000000e+00 0.000000000000000000e+00 -5.829159600000000108e-02 4.741042357000000429e+00 0.000000000000000000e+00 4.540765680000000137e-01 -3.719108810000000265e-01 1.496411937699999939e+01
2.551813668999999951e+00 0.000000000000000000e+00 0.000000000000000000e+00 5.001130899999999685e-02 4.432242364999999573e+00 0.000000000000000000e+00 3.403548350000000222e-01 -4.377240700000000206e-01 2.093396346899999827e+01
2.726249532999999836e+00 0.000000000000000000e+00 0.000000000000000000e+00 1.355805099999999874e-01 4.824229159999999794e+00 0.000000000000000000e+00 -1.335774409999999912e-01 -3.821448720000000243e-01 1.943965615500000155e+01
2.736963288000000105e+00 0.000000000000000000e+00 0.000000000000000000e+00 1.025538720000000042e-01 4.620824412000000159e+00 0.000000000000000000e+00 -2.488964090000000129e-01 -4.291533319999999985e-01 1.873137921000000006e+01
2.412229563999999993e+00 0.000000000000000000e+00 0.000000000000000000e+00 -2.518120800000000006e-02 4.329513769000000067e+00 0.000000000000000000e+00 -1.246500140000000034e-01 5.914155599999999791e-02 1.865356617799999839e+01
2.535775851999999997e+00 0.000000000000000000e+00 0.000000000000000000e+00 5.853824400000000316e-02 4.262909858999999635e+00 0.000000000000000000e+00 -7.612970700000000479e-02 -4.051128449999999992e-01 1.582854010199999983e+01
2.551813668999999951e+00 0.000000000000000000e+00 0.000000000000000000e+00 5.001130899999999685e-02 4.432242364999999573e+00 0.000000000000000000e+00 3.403548350000000222e-01 -4.377240700000000206e-01 2.093396346899999827e+01
2.585012707000000187e+00 0.000000000000000000e+00 0.000000000000000000e+00 -7.537186499999999623e-02 4.762854589999999888e+00 0.000000000000000000e+00 1.084599460000000015e-01 1.059844820000000049e-01 2.022873645800000020e+01
2.551813668999999951e+00 0.000000000000000000e+00 0.000000000000000000e+00 5.001130899999999685e-02 4.432242364999999573e+00 0.000000000000000000e+00 3.403548350000000222e-01 -4.377240700000000206e-01 2.093396346899999827e+01
2.655419986000000065e+00 0.000000000000000000e+00 0.000000000000000000e+00 1.899479800000000024e-02 4.680048674000000020e+00 0.000000000000000000e+00 3.493042060000000060e-01 7.352294299999999339e-02 1.796751246599999874e+01
2.585012707000000187e+00 0.000000000000000000e+00 0.000000000000000000e+00 -7.537186499999999623e-02 4.762854589999999888e+00 0.000000000000000000e+00 1.084599460000000015e-01 1.059844820000000049e-01 2.022873645800000020e+01
2.452543530999999888e+00 0.000000000000000000e+00 0.000000000000000000e+00 -6.253426500000000554e-02 4.317692778999999703e+00 0.000000000000000000e+00 -3.095438609999999757e-01 -1.379841619999999935e-01 1.261098872600000043e+01
