-3.844142765000000139e+01
-4.111660394999999824e+01
-3.760350254000000092e+01
-3.654202003000000332e+01
-3.983616586000000126e+01
-3.758711800999999753e+01
-3.899687763000000018e+01
-3.963421427000000108e+01
-3.669874751999999773e+01
-3.823648306999999846e+01
-4.048525009000000097e+01
-3.960459305999999913e+01
-3.743954808000000156e+01
-3.928572799999999887e+01
-3.622797991000000195e+01
-3.640560065999999750e+01
-3.657960452999999745e+01
-3.830730547000000286e+01
-3.882418953999999900e+01
-3.654155790000000081e+01
-3.884656771000000219e+01
-3.874991321000000255e+01
-3.606219916999999953e+01
-4.075192610999999943e+01
