4.094360000000000221e-01 -7.431539999999999813e-01 6.582320000000000393e-01 1.259738000000000024e+00 1.173038999999999943e+00 -1.825361000000000011e+00 4.427030000000000132e-01 1.633253000000000066e+00 1.878799999999999915e-02 -9.509600000000000275e-01 -1.496080000000000076e+00 -5.225729999999999542e-01 6.758049999999999891e-01 1.539749000000000034e+00 -1.283741999999999939e+00 3.260000000000000094e-04 4.504699999999999677e-02 -2.926480000000000192e-01 -4.135570000000000079e-01 -2.028957000000000122e+00 -5.574419999999999931e-01 -1.519590000000000107e-01 2.754570000000000074e-01 6.196040000000000436e-01 -1.030202999999999980e+00 -1.820553000000000088e+00 1.124460000000000043e-01 -6.718779999999999752e-01 6.735090000000000243e-01 1.594238000000000044e+00 6.631800000000000195e-02 4.996999999999999775e-01 1.827331999999999956e+00 3.642310000000000270e-01 2.489899999999999891e-01 -3.488740000000000174e-01
-8.614490000000000203e-01 1.438552000000000053e+00 3.026209999999999845e+00 7.207200000000000273e-01 1.467389000000000054e+00 1.124070000000000069e-01 1.180542999999999898e+00 4.064429999999999987e-01 -1.318842000000000070e+00 -7.820329999999999782e-01 -1.373793999999999960e+00 5.125150000000000539e-01 -5.045509999999999717e-01 2.850300000000000056e-02 1.024947999999999970e+00 5.093419999999999614e-01 -3.789939999999999976e-01 -9.554190000000000182e-01 4.998159999999999825e-01 6.576379999999999448e-01 -2.806649999999999978e-01 4.720840000000000036e-01 6.012450000000000294e-01 -6.721949999999999870e-01 -6.822200000000000486e-01 -1.013967000000000063e+00 -4.481109999999999816e-01 -7.128109999999999724e-01 -2.783660000000000023e-01 1.267109999999999903e-01 3.048308000000000018e+00 -2.815742999999999885e+00 6.637203000000000408e+00 -2.887748000000000204e+00 1.261093999999999937e+00 -7.764763000000000304e+00
1.534969999999999946e-01 1.769729999999999914e-01 -9.448950000000000404e-01 4.776170000000000138e-01 -8.097860000000000058e-01 -3.342539999999999956e-01 1.332799999999999957e-02 1.551400000000000001e-02 1.055239000000000038e+00 -3.719040000000000123e-01 -3.100769999999999915e-01 -1.203691000000000066e+00 -4.780700000000000227e-02 -9.362350000000000394e-01 -1.787229999999999930e-01 -2.303250000000000020e-01 1.032734000000000041e+00 2.959970000000000101e-01 4.193680000000000185e-01 6.429399999999999560e-01 3.531357999999999997e+00 -3.166999999999999815e-01 1.468299999999999987e-02 -3.050169999999999826e-01 1.204019999999999951e-01 -1.476850000000000107e-01 -3.345514999999999795e+00 2.918359999999999843e-01 1.090708999999999929e+00 8.481560000000000210e-01 -4.055739999999999901e-01 -1.048996000000000040e+00 1.997649999999999981e-01 -1.037369999999999959e-01 2.792229999999999990e-01 3.815810000000000035e-01
-1.091099999999999987e-01 -7.161659999999999693e-01 -1.669500000000000151e-02 7.861600000000000532e-02 -6.429420000000000135e-01 -8.378640000000000532e-01 -7.806939999999999991e-01 -1.673399999999999888e-01 1.374829999999999997e+00 7.711600000000000399e-02 5.907090000000000396e-01 2.643989999999999951e-01 -2.388637999999999817e+00 2.606970000000000121e-01 4.373962999999999823e+00 6.829699999999999660e-02 -7.683999999999999858e-03 4.040969999999999840e-01 1.087499999999999925e-02 3.291270000000000029e-01 -7.338259999999999783e-01 -2.867259999999999809e-01 4.730999999999999962e-03 1.792169999999999874e-01 1.487090000000000078e-01 4.155220000000000025e-01 8.518930000000000113e-01 1.097744999999999971e+00 -8.933999999999999234e-03 -2.169515000000000082e+00 2.272197999999999940e+00 -2.061399999999999899e-01 -3.975083999999999840e+00 -1.883869999999999989e-01 1.484199999999999964e-01 2.845860000000000056e-01
-4.689610000000000167e-01 7.606119999999999548e-01 -4.540341999999999878e+00 3.443019999999999969e-01 1.172336999999999962e+00 1.338408000000000042e+00 1.464804999999999913e+00 4.061511000000000315e+00 6.223131000000000412e+00 5.965679999999999872e-01 -2.776100000000000012e+00 -9.834300000000000264e-01 -1.314824999999999910e+00 -3.444046000000000163e+00 2.695066000000000184e+00 -7.645119999999999694e-01 -1.618613000000000079e+00 -1.966130000000000100e-01 -9.707999999999999963e-02 -4.948830000000000173e-01 7.356920000000000126e-01 7.207770000000000010e-01 1.388382999999999923e+00 -2.340980000000000005e-01 3.575880000000000170e-01 -1.369336000000000109e+00 -4.744156000000000262e+00 7.528359999999999497e-01 -1.026343000000000005e+00 -4.885720000000000063e-01 -1.056567999999999952e+00 2.192136000000000084e+00 -7.201000000000000456e-02 -5.349300000000000166e-01 1.154341999999999979e+00 2.669239999999999946e-01
-3.534419999999999784e-01 -4.720170000000000199e-01 3.846620000000000039e-01 -2.742709999999999870e-01 -1.925840000000000052e-01 1.056716999999999906e+00 3.655689999999999773e-01 -8.334279999999999466e-01 -4.459549999999999903e-01 6.699000000000000093e-03 2.102569999999999995e-01 5.694069999999999965e-01 1.660089999999999899e-01 8.922860000000000236e-01 3.355159999999999809e-01 4.495689999999999964e-01 4.739380000000000259e-01 8.120650000000000368e-01 3.197670000000000234e-01 7.023200000000000554e-01 -6.516779999999999795e-01 3.845319999999999849e-01 1.699640000000000040e+00 7.747199999999999920e-02 -2.085008000000000195e+00 -2.354912999999999812e+00 -3.942893999999999899e+00 1.594607000000000108e+00 4.955849999999999977e-01 3.377540999999999904e+00 -4.764470000000000094e-01 7.977900000000000269e-02 -4.842009999999999925e-01 -9.758400000000000407e-02 -7.008649999999999602e-01 -1.088651000000000035e+00
-1.798220000000000096e-01 1.099677000000000016e+00 -1.093734999999999902e+00 2.788300000000000153e-02 2.799700000000000105e-02 8.776770000000000405e-01 1.837459999999999927e-01 -9.527599999999999958e-02 6.259820000000000384e-01 -9.020740000000000425e-01 9.930419999999999803e-01 -7.378200000000000036e-02 7.282290000000000152e-01 -8.011420000000000208e-01 5.384719999999999507e-01 -1.999999999999999909e-06 -1.339399999999999966e-02 -2.381749999999999978e-01 -6.447300000000000253e-01 -1.849939999999999918e-01 9.446269999999999945e-01 3.904400000000000232e-02 1.705260000000000109e-01 9.442909999999999915e-01 -1.026979999999999976e-01 -1.514989999999999948e-01 -2.386759999999999993e-01 4.874269999999999992e-01 -8.290950000000000264e-01 -2.405853000000000019e+00 7.812700000000000200e-01 -1.427289000000000030e+00 -3.702199999999999935e-02 -4.182739999999999791e-01 1.211446999999999941e+00 1.561919999999999975e-01
-1.293539999999999912e+00 -8.302500000000000158e-02 -7.127730999999999817e+00 5.774080000000000323e-01 -2.692585999999999924e+00 -7.435999999999999902e-03 1.084858000000000100e+00 -1.100700999999999929e+00 6.289614000000000260e+00 7.283629999999999827e-01 -7.270189999999999708e-01 2.945909999999999918e-01 -1.555133000000000099e+00 1.204372999999999916e+00 5.167131999999999614e+00 1.803939999999999988e-01 3.830089999999999884e-01 -8.530130000000000212e-01 -2.073210000000000053e-01 3.452561999999999909e+00 1.563652000000000042e+00 1.130349999999999966e-01 -9.499100000000000599e-02 -1.835459999999999869e-01 1.380676000000000014e+00 4.450830000000000064e-01 -5.161078999999999972e+00 1.857189999999999952e-01 -7.164970000000000505e-01 1.469932999999999934e+00 -1.082759000000000027e+00 1.080990000000000006e-01 -2.020338999999999885e+00 -1.116999999999999937e-01 -1.783079999999999943e-01 5.682209999999999761e-01
2.329000000000000167e-02 -3.774569999999999870e-01 -1.848313000000000095e+00 3.940859999999999919e-01 4.574929999999999830e-01 -4.891480000000000272e-01 -6.145399999999999752e-01 -1.009247999999999923e+00 4.234000000000000263e-02 1.781458999999999904e+00 1.168282000000000043e+00 4.030107000000000106e+00 1.797580000000000011e-01 -6.875390000000000112e-01 -7.596810000000000507e-01 -3.310939999999999994e-01 -8.124130000000000518e-01 -4.691919999999999980e-01 -1.179030000000000022e+00 -2.444179999999999964e-01 -3.222250999999999976e+00 -4.194099999999999911e-02 1.308560000000000001e-01 -1.923700000000000132e-01 -2.560620000000000118e-01 -3.224009999999999931e-01 -1.200890000000000013e-01 -5.757360000000000255e-01 -1.100853999999999999e+00 2.086886999999999937e+00 3.979570000000000052e-01 7.997480000000000144e-01 3.249540000000000206e-01 2.218549999999999967e-01 1.997951999999999950e+00 6.167559999999999709e-01
-5.503550000000000386e-01 1.570955000000000101e+00 -2.408409999999999995e-01 -3.230950000000000211e-01 -1.855342000000000047e+00 -4.121377999999999986e+00 -7.597800000000000387e-02 -6.230560000000000542e-01 9.820389999999999953e-01 1.050070000000000031e-01 2.844140000000000001e-01 -9.677959999999999896e-01 3.912399999999999767e-01 -1.556818999999999953e+00 -3.271470000000000211e-01 -1.227779999999999982e-01 4.429879999999999929e-01 -7.840979999999999617e-01 5.979360000000000230e-01 1.041282000000000041e+00 2.383859999999999868e-01 4.241610000000000102e-01 -2.033119999999999816e+00 2.346554999999999946e+00 -3.168540000000000245e-01 1.746445000000000025e+00 -1.508650000000000047e+00 1.226200000000000033e-02 -9.824389999999999512e-01 8.665439999999999809e-01 1.331400000000000083e-01 2.651450000000000196e-01 8.148099999999999787e-02 -2.746870000000000145e-01 1.699546000000000001e+00 3.434905000000000097e+00
3.424360000000000182e-01 -6.188500000000000251e-02 -2.807049999999999823e-01 -7.917830000000000146e-01 9.149999999999999800e-02 -1.386765999999999943e+00 4.065909999999999802e-01 5.956479999999999553e-01 -1.327296999999999949e+00 -3.095527999999999835e+00 -1.819045000000000023e+00 -8.778081999999999496e+00 -4.301030000000000131e-01 3.177949999999999942e-01 6.234399999999999664e-02 -1.056850000000000012e-01 -9.363409999999999789e-01 1.080597000000000030e+00 3.513359999999999816e-01 -3.577799999999999730e-02 1.720279999999999865e-01 -7.795959999999999557e-01 1.414395000000000069e+00 1.610494000000000092e+00 -5.400580000000000380e-01 -1.815519999999999912e-01 -1.409885999999999973e+00 4.086943999999999910e+00 5.088350000000000373e-01 9.767811999999999273e+00 1.192400000000000057e-02 -1.574019999999999864e-01 -1.028346999999999900e+00 5.435219999999999496e-01 2.638300000000000090e-01 1.517808000000000046e+00
-7.195049999999999502e-01 -5.430469999999999464e-01 -9.848590000000000400e-01 1.247660000000000019e-01 -3.064210000000000100e+00 -4.866800000000000292e-02 -2.577050000000000174e-01 -1.348499999999999976e-01 8.350349999999999717e-01 -1.688674999999999926e+00 2.002508000000000177e+00 6.466376999999999597e+00 1.572637999999999980e+00 -4.977690000000000170e-01 4.223334000000000366e+00 7.974550000000000249e-01 7.606599999999999473e-02 -6.281529999999999614e-01 8.195399999999999907e-02 3.097018999999999966e+00 5.879389999999999894e-01 -3.452569999999999806e-01 -2.707479999999999887e-01 -7.127210000000000489e-01 -5.961809999999999610e-01 1.081752000000000047e+00 -4.397393000000000107e+00 1.452388000000000012e+00 -1.339023000000000074e+00 -4.340951999999999700e+00 -1.008399999999999963e+00 -1.358810000000000018e-01 4.818160999999999916e+00 5.865219999999999878e-01 -2.718169999999999753e-01 -5.818099000000000132e+00
-3.291279999999999761e-01 -5.297979999999999912e-01 1.165284999999999904e+00 -4.931440000000000268e-01 -6.763299999999999867e-01 -1.657575000000000021e+00 -3.190740000000000243e-01 8.416839999999999877e-01 9.523099999999999621e-02 -2.111629999999999896e-01 1.481508000000000047e+00 -3.663912999999999975e+00 -4.329000000000000209e-02 2.548279999999999990e-01 3.337539999999999951e-01 5.190489999999999826e-01 5.686360000000000303e-01 4.780319999999999681e+00 6.340059999999999585e-01 4.474830000000000196e-01 5.189869999999999761e-01 2.655599999999999974e-02 -2.897699999999999942e+00 2.800710000000000033e+00 3.532359999999999944e-01 -8.238480000000000247e-01 1.830246000000000040e+00 6.460399999999999476e-02 1.051380999999999899e+00 -6.210768999999999984e+00 -4.304520000000000013e-01 1.394950000000000079e-01 -4.938759999999999817e-01 2.288000000000000034e-01 1.426610000000000100e-01 5.015990000000000171e-01
7.374100000000000099e-02 1.035166000000000031e+00 1.727902999999999967e+00 3.297120000000000051e-01 2.138767999999999780e+00 3.683379999999999987e-01 5.856800000000000200e-02 4.086110000000000020e-01 -2.778459999999999819e-01 1.261238999999999999e+00 -2.606942999999999788e+00 -6.985070000000000334e+00 2.436949999999999950e-01 2.289190000000000114e-01 -1.224264000000000019e+00 3.322120000000000073e-01 -9.685570000000000013e-01 -1.800559999999999938e-01 -2.740489999999999871e-01 -4.047390000000000154e-01 -5.549749999999999961e-01 -1.040399999999999936e-01 9.108300000000000285e-01 -2.050260000000000138e-01 -1.858660000000000034e-01 -1.045360000000000067e+00 -6.006359999999999477e-01 -6.685659999999999936e-01 1.762755999999999990e+00 8.183289999999999731e-01 -1.773258999999999919e+00 8.205970000000000208e-01 6.112987999999999644e+00 7.066130000000000466e-01 -2.280047999999999853e+00 1.000315000000000065e+00
5.948989999999999556e-01 2.068522000000000194e+00 -1.401102999999999987e+00 -7.460200000000000164e-01 -1.101998000000000033e+00 1.603982000000000019e+00 6.052600000000000341e-02 3.405449999999999866e-01 2.459480000000000000e-01 4.590719999999999801e-01 1.413407000000000080e+00 -5.657389999999999919e-01 -1.325426999999999911e+00 3.811580000000000190e+00 -6.464149999999999618e-01 4.846730000000000205e-01 -1.636499999999999899e-01 1.565703000000000067e+00 -4.796980000000000133e-01 -1.373183000000000042e+00 -1.133440000000000003e-01 -5.362909999999999622e-01 -5.003809999999999647e-01 1.512270000000000003e-01 4.324299999999999672e-02 1.412000000000000061e-03 -9.150099999999999900e-02 -4.921229999999999771e-01 -3.590399999999999842e-02 -1.610311999999999966e+00 1.755859000000000059e+00 -3.685093000000000174e+00 7.063110000000000221e-01 1.812880000000000047e-01 -7.752569999999999739e-01 1.552439999999999931e-01
-1.403000000000000025e+00 -9.489419999999999522e-01 -2.523295000000000066e+00 -1.003990000000000021e-01 -3.123059999999999725e-01 -4.717299999999999965e-02 -1.197909999999999947e-01 1.309240000000000126e-01 1.038580000000000059e-01 8.908770000000000300e-01 5.513010000000000410e-01 8.102209999999999690e-01 -2.796523999999999788e+00 2.871112999999999804e+00 6.407319000000000209e+00 -8.197599999999999332e-02 -2.481240000000000112e-01 9.922799999999999676e-02 -3.310580000000000189e-01 -6.954639999999999711e-01 -2.834990000000000010e-01 -2.257109999999999950e-01 7.164220000000000033e-01 -3.367899999999999783e-01 2.698029000000000011e+00 -3.029329999999999856e+00 -5.911364999999999981e+00 7.708909999999999929e-01 -8.730139999999999567e-01 2.500249000000000166e+00 9.718560000000000532e-01 3.140129999999999866e-01 8.809789999999999566e-01 -2.731939999999999924e-01 1.523408000000000095e+00 -1.699731000000000103e+00
-5.209319999999999506e-01 -7.038043000000000049e+00 3.571381999999999834e+00 1.491490000000000038e-01 7.066489999999999716e-01 1.974504000000000037e+00 1.047844999999999915e+00 2.341273000000000160e+00 8.529899999999999982e-02 3.484599999999999920e-01 -1.860106000000000037e+00 -1.145930000000000004e-01 2.721060000000000145e-01 3.304389999999999827e-01 -6.020670000000000188e-01 -7.145829999999999682e-01 1.523138000000000103e+00 -3.990139999999999798e-01 3.384039999999999826e-01 -1.716282000000000085e+00 4.647479999999999944e-01 -5.976590000000000513e-01 1.618170000000000108e+00 -1.058326000000000100e+00 -2.576709999999999834e-01 4.138899999999999801e-01 -3.771550000000000180e-01 8.310880000000000489e-01 6.159117000000000175e+00 -4.883757000000000126e+00 -1.800440000000000096e-01 -2.711799999999999974e-02 -2.871460000000000123e-01 -7.161640000000000228e-01 -2.451128000000000196e+00 1.626122999999999985e+00
1.312000000000000111e-01 -3.823739999999999917e-01 -7.413020000000000165e-01 -3.613202999999999943e+00 -7.128383000000000358e+00 -4.959814999999999863e+00 1.425009999999999888e-01 4.476140000000000119e-01 -1.164393000000000011e+00 5.443900000000000128e-02 3.328699999999999715e-02 3.217579999999999885e-01 -1.585290000000000032e-01 -5.382810000000000095e-01 -1.160569999999999935e-01 3.578965999999999870e+00 7.710332000000000185e+00 5.963307000000000357e+00 1.100605999999999973e+00 2.585904000000000202e+00 1.281060000000000088e+00 2.828049999999999731e-01 -1.289848000000000106e+00 7.685859999999999914e-01 -1.794219999999999982e-01 7.280170000000000252e-01 -1.937879999999999880e-01 1.049969999999999931e-01 -1.652939999999999965e-01 -5.736919999999999797e-01 -1.110897000000000023e+00 -2.785702999999999818e+00 -7.799829999999999819e-01 -3.334630000000000094e-01 7.847290000000000099e-01 1.943189999999999917e-01
3.133199999999999874e-02 2.945590000000000153e-01 8.284099999999999797e-02 -2.765719999999999845e-01 3.208559999999999746e-01 -1.211203000000000030e+00 1.045433999999999974e+00 -2.960895999999999972e+00 -5.007960999999999885e+00 2.782290000000000041e-01 -3.022650000000000059e-01 -1.093200000000000074e-02 -1.453939999999999955e-01 -5.553999999999999909e-03 1.006215000000000082e+00 3.499860000000000193e-01 -1.095388999999999946e+00 4.024170000000000247e-01 2.004039999999999988e-01 -1.915899999999999895e-02 5.767240000000000144e-01 -1.242318999999999951e+00 3.950512999999999941e+00 4.022657999999999845e+00 -1.071610000000000062e-01 9.311469999999999470e-01 2.291573000000000082e+00 -2.255050000000000110e-01 -4.951889999999999903e-01 2.633530000000000038e-01 2.627780000000000116e-01 -7.810209999999999653e-01 -1.780726000000000031e+00 -1.712100000000000011e-01 1.623960000000000126e-01 -6.349599999999999689e-01
3.365159999999999818e-01 -9.033060000000000533e-01 -9.032000000000000098e-03 -1.810410000000000075e-01 4.238199999999999745e-01 -1.533331999999999917e+00 -2.401010000000000089e-01 4.714380000000000237e-01 8.274999999999999370e-03 -1.777430000000000121e-01 4.621730000000000005e-01 2.591600000000000154e-02 -1.704189999999999872e-01 -1.189039999999999958e-01 9.770800000000000318e-02 6.673649999999999860e-01 -2.551829999999999932e-01 1.325086999999999904e+00 -3.552710000000000035e-01 -6.286490000000000133e-01 -4.151416000000000217e+00 5.701460000000000417e-01 6.025869999999999838e-01 3.593369000000000035e+00 1.678499999999999992e-01 -1.172190000000000037e-01 -7.383129999999999971e-01 -3.661929999999999907e-01 2.177439999999999931e-01 1.134371999999999936e+00 7.354600000000000026e-02 -9.332200000000000217e-02 4.377570000000000072e-01 -3.246560000000000001e-01 -6.117899999999999727e-02 -1.903890000000000027e-01
3.362099999999999811e-02 3.003170000000000006e-01 -3.881870000000000043e-01 7.248289999999999456e-01 1.245862000000000025e+00 -3.680180000000000118e-01 5.334830000000000405e-01 2.371868000000000087e+00 -2.077180000000000137e-01 -9.634880000000000111e-01 -3.685180000000000122e-01 -5.958040000000000003e-01 7.136759999999999771e-01 6.871110000000000273e-01 1.012310000000000015e-01 -7.569999999999999689e-04 1.235499999999999966e-02 -2.466440000000000021e-01 -4.789590000000000236e-01 -3.072773999999999894e+00 -7.011519999999999975e-01 -2.154929999999999901e-01 5.269270000000000342e-01 1.569922999999999957e+00 -6.883620000000000294e-01 -1.326742000000000088e+00 5.773999999999999619e-03 -1.586700000000000055e-01 -4.977960000000000163e-01 -2.403889999999999916e-01 4.841480000000000228e-01 -8.174670000000000547e-01 1.319514000000000076e+00 1.597300000000000109e-02 9.388570000000000526e-01 -2.485310000000000019e-01
2.601840000000000264e-01 5.511129999999999640e-01 -5.995500000000000274e-01 7.433700000000000030e-02 -3.600929999999999964e-01 2.508000000000000160e-02 5.063700000000000145e-02 9.095599999999999519e-02 -4.399140000000000272e-01 6.582599999999999563e-02 -2.497560000000000058e-01 8.892370000000000552e-01 6.756649999999999601e-01 5.702256000000000213e+00 9.165910000000000446e-01 -2.647550000000000181e-01 -5.190679999999999739e-01 2.995380000000000265e-01 1.589959999999999984e-01 1.309720000000000051e-01 -4.308119999999999727e-01 2.201799999999999938e-02 6.649199999999999555e-02 -4.167460000000000053e-01 1.214080000000000020e-01 1.483520000000000116e-01 -1.561939999999999995e-01 -3.961899999999999866e-01 -5.986829999999999652e-01 6.250069999999999792e-01 -1.522950000000000137e-01 -1.752259999999999929e-01 -1.012929999999999942e-01 -6.158310000000000173e-01 -4.787316999999999823e+00 -6.109440000000000426e-01
1.812010000000000010e-01 -2.709779999999999966e-01 2.989339999999999775e-01 -4.671049999999999924e-01 3.054230000000000000e-01 -1.953025000000000011e+00 -1.660480000000000012e-01 -3.319219999999999948e-01 -4.159419999999999784e-01 -4.154370000000000007e-01 2.182784999999999975e+00 1.111970000000000042e-01 -3.288530000000000064e-01 -5.073839999999999462e-01 -1.050269999999999954e-01 1.434684000000000070e+00 -1.260477999999999987e+00 1.729627999999999943e+00 -3.991520000000000068e-01 -1.519857000000000014e+00 -3.684476999999999780e+00 7.611980000000000413e-01 3.582589999999999941e-01 2.141404000000000085e+00 1.775919999999999999e-01 5.057099999999999790e-02 -7.985189999999999788e-01 -4.106600000000000250e-01 5.396600000000000286e-01 2.192896000000000178e+00 9.494000000000000702e-03 7.697669999999999790e-01 3.649959999999999871e-01 -3.769129999999999980e-01 -3.158449999999999869e-01 1.179349999999999982e-01
7.158000000000000300e-03 -6.395560000000000134e-01 -5.227000000000000535e-01 2.390190000000000092e-01 -8.129239999999999799e-01 1.208650000000000002e-01 -1.412087000000000092e+00 3.907660000000000022e-01 -2.393825000000000092e+00 4.778979999999999895e-01 -7.495519999999999960e-01 6.451789999999999470e-01 1.048130000000000034e-01 -2.455710000000000115e-01 -4.277099999999999791e-01 -1.853229999999999877e-01 -6.020521999999999707e+00 1.937175000000000091e+00 -6.759199999999999930e-02 1.266084999999999905e+00 -7.761660000000000226e-01 -1.880600000000000049e-01 -3.571250000000000258e-01 -1.061533999999999978e+00 6.466410000000000213e-01 3.719390000000000196e-01 -1.151375000000000037e+00 1.033438000000000079e+00 7.143075999999999759e+00 1.068923999999999985e+00 2.634290000000000243e-01 1.164088000000000012e+00 1.648924999999999974e+00 -9.193339999999999845e-01 -1.510704000000000047e+00 9.122409999999999686e-01
