-1.376999999999999925e-02 6.873599999999999710e-01 2.377606999999999804e+00 7.775389999999999802e-01 -2.078049999999999897e-01 -2.312919999999999976e-01 -1.718213999999999908e+00 -1.407027999999999945e+00 9.697400000000000464e-02 6.050649999999999640e-01 7.169520000000000337e-01 6.978199999999999958e-01 6.743090000000000472e-01 1.830896000000000079e+00 -3.678159999999999763e-01 -2.754409999999999914e-01 -8.760599999999999499e-01 -9.243109999999999937e-01 -2.165026999999999813e+00 1.090063999999999922e+00 3.637653999999999943e+00 -6.507249999999999979e-01 5.681119999999999504e-01 -1.103579000000000088e+00 1.609793000000000029e+00 -6.700760000000000050e-01 -2.270259999999999945e+00 3.173090000000000077e-01 -6.694160000000000110e-01 -4.936280000000000112e-01 1.286234000000000099e+00 -4.843459999999999988e-01 1.220183999999999935e+00 -3.836069999999999758e-01 -4.205150000000000277e-01 -1.153804000000000052e+00 -8.399780000000000024e-01 -4.784979999999999789e-01 4.654420000000000224e-01 1.131332000000000004e+00 -7.995299999999999629e-01 -3.290792000000000161e+00 -2.939010000000000233e-01 1.496840000000000115e-01 1.776760000000000006e-01 -6.091799999999999993e-02 9.702060000000000128e-01 1.162125999999999992e+00
6.172119999999999829e-01 -9.842959999999999487e-01 -7.958039999999999559e-01 -5.410310000000000397e-01 1.192047000000000079e+00 3.052600000000000105e-02 -2.855880000000000085e-01 5.662760000000000016e-01 -2.587940000000000240e-01 -3.716280000000000139e-01 8.162009999999999543e-01 -4.858199999999999741e-01 -1.092449000000000003e+00 4.342969999999999886e-01 3.857929999999999970e-01 2.134699999999999931e-01 -1.246499000000000024e+00 3.691809999999999814e-01 -3.128119999999999790e-01 -3.265930000000000222e-01 -1.443379999999999941e-01 1.099770000000000053e-01 4.995000000000000134e-02 -3.413129999999999775e-01 1.191910000000000025e+00 -1.065703000000000067e+00 4.058510000000000173e-01 -2.143390000000000017e-01 -2.566109999999999780e-01 8.815870000000000095e-01 -6.011469999999999869e-01 1.847499999999999837e-02 -8.390499999999999348e-02 2.044878999999999891e+00 1.084905999999999926e+00 -1.588279999999999970e-01 1.983060000000000100e-01 7.250809999999999755e-01 -6.172699999999999715e-02 -4.385569999999999746e-01 4.627530000000000254e-01 4.621779999999999777e-01 -1.399839999999999973e-01 3.768560000000000243e-01 5.449799999999999783e-02 -3.782190000000000274e-01 -1.847139000000000086e+00 -2.590850000000000097e-01
8.246440000000000436e-01 -7.603799999999999448e-01 3.138520000000000199e-01 1.894562999999999997e+00 -2.493689999999999962e+00 2.222530000000000061e-01 -8.119899999999999340e-02 2.918919999999999848e-01 -4.304689999999999905e-01 -1.917419999999999958e-01 9.977859999999999507e-01 1.375463000000000102e+00 1.560680000000000123e-01 3.812150000000000261e-01 1.433499000000000079e+00 -1.644784000000000024e+00 9.327090000000000103e-01 2.601689999999999836e-01 -3.830129999999999924e-01 -2.889490000000000114e-01 -1.377048000000000050e+00 4.796340000000000048e-01 2.382239999999999913e-01 8.201300000000000257e-02 3.123799999999999841e-02 -7.691090000000000426e-01 -2.607450000000000045e-01 1.227410000000000029e-01 -4.172370000000000245e-01 -9.083890000000000020e-01 -1.696489999999999942e-01 -6.004629999999999690e-01 -1.869820000000000093e-01 7.301889999999999770e-01 -8.210499999999999743e-02 -7.193629999999999747e-01 -2.611689999999999845e-01 2.858850000000000002e-01 7.221400000000000041e-01 -2.592251999999999779e+00 2.891745999999999928e+00 -1.372017999999999960e+00 3.585229999999999806e-01 5.654230000000000089e-01 -2.136699999999999988e-01 7.262070000000000469e-01 -1.172946999999999962e+00 1.059293999999999958e+00
1.864499999999999838e-02 -3.750580000000000025e-01 5.968250000000000499e-01 3.261299999999999755e-01 4.226869999999999794e-01 -1.674990000000000090e-01 6.186530000000000085e-01 -3.495899999999999702e-02 -3.674250000000000016e-01 1.051340000000000052e-01 -7.681999999999999940e-02 -5.565120000000000067e-01 3.434050000000000158e-01 -5.159350000000000325e-01 2.855449999999999933e-01 1.292010000000000103e-01 1.057846999999999982e+00 3.197760000000000047e-01 -3.098770000000000135e-01 -9.221899999999999542e-02 3.114279999999999826e-01 -8.254400000000000626e-02 3.057409999999999850e-01 -1.426669999999999883e-01 -6.249699999999999700e-02 5.049479999999999524e-01 9.972699999999999620e-02 -8.109530000000000349e-01 5.385000000000000030e-03 -2.062009999999999954e-01 9.909879999999999800e-01 -4.236710000000000198e-01 2.215739999999999932e-01 -5.821279999999999788e-01 1.072306999999999899e+00 -1.932139999999999969e-01 -4.384099999999999803e-02 4.146759999999999891e-01 -1.942329999999999890e-01 6.841120000000000534e-01 3.072199999999999931e-02 1.470563999999999982e+00 -5.682300000000000129e-01 -1.202887999999999957e+00 -9.253869999999999596e-01 -7.561959999999999793e-01 -1.092761000000000093e+00 -5.523029999999999884e-01
-2.576570999999999945e+00 5.383759999999999657e-01 -1.471141999999999950e+00 -1.396236000000000033e+00 -9.145579999999999821e-01 3.212470000000000048e-01 -1.009940000000000060e+00 -1.661518000000000050e+00 1.132719999999999977e-01 1.773733000000000004e+00 1.140503000000000045e+00 -1.240288000000000057e+00 7.741599999999999593e-01 7.146510000000000362e-01 8.908190000000000275e-01 1.232904000000000000e+00 1.327599999999999891e+00 5.927600000000000230e-02 -5.822810000000000485e-01 3.960170000000000079e-01 -2.403099999999999958e-01 4.696919999999999984e-01 -3.661949999999999927e-01 5.129810000000000203e-01 3.917970000000000064e-01 -1.047438000000000091e+00 -6.880200000000000204e-02 -1.569319999999999882e-01 6.994700000000000362e-01 -3.158500000000000196e-02 7.363420000000000520e-01 -1.083355000000000068e+00 3.929440000000000155e-01 2.462840000000000029e-01 -9.361589999999999634e-01 1.056999999999999953e-02 2.286640000000000061e-01 1.227203999999999962e+00 3.543189999999999951e-01 8.032639999999999780e-01 -7.192800000000000582e-02 2.509640000000000204e-01 -9.916669999999999652e-01 6.302100000000000479e-01 1.036770000000000053e-01 5.678699999999999720e-02 -5.928799999999999626e-01 4.205899999999999916e-02
-1.354279000000000011e+00 -2.555230000000000001e-01 -1.295476000000000072e+00 6.603799999999999948e-02 -7.526100000000000012e-01 -4.527880000000000238e-01 -1.065512999999999932e+00 6.083800000000000319e-01 9.967500000000000249e-01 1.758999999999999930e-03 -3.649549999999999739e-01 -8.224660000000000304e-01 1.600247999999999893e+00 -4.973179999999999823e-01 -7.151000000000000412e-02 5.314849999999999852e-01 2.005919999999999925e-01 -1.145189999999999958e-01 -9.314510000000000289e-01 7.286089999999999511e-01 -1.811984000000000039e+00 1.523440000000000072e-01 -6.681840000000000002e-01 -3.817000000000000080e-03 -9.775999999999999968e-03 -1.581420000000000048e-01 3.337339999999999751e-01 1.092837999999999976e+00 -1.192704999999999904e+00 2.456026000000000042e+00 -1.639150000000000051e-01 6.435790000000000122e-01 -1.245600000000000041e-01 -2.470930000000000071e-01 5.007279999999999509e-01 6.912840000000000096e-01 -7.331079999999999819e-01 9.874070000000000347e-01 5.219679999999999875e-01 -9.897160000000000402e-01 -3.643739999999999757e-01 1.340541999999999900e+00 1.600333999999999923e+00 -3.469740000000000046e-01 -2.454419999999999935e-01 4.498039999999999816e-01 9.314919999999999867e-01 -1.397739999999999982e+00
-4.701000000000000317e-02 1.156409999999999938e-01 2.797899999999999832e-01 -1.643419999999999881e-01 -1.225860000000000005e-01 -1.280320000000000069e-01 -2.198710000000000109e-01 5.804350000000000342e-01 -1.760950000000000015e-01 -7.663269999999999804e-01 -2.187030000000000085e-01 5.119089999999999474e-01 -1.255009999999999959e+00 -3.467000000000000030e-03 2.161129999999999995e-01 -1.999562000000000062e+00 2.329660000000000064e-01 -2.310600000000000154e-02 2.309018000000000015e+00 2.199699999999999919e-02 -1.986690000000000123e-01 1.664099999999999954e-02 -1.719729999999999870e-01 -1.666617999999999933e+00 3.738049999999999984e-01 -1.699450000000000127e-01 6.491639999999999633e-01 -2.482080000000000120e-01 5.932920000000000416e-01 4.950100000000000333e-02 -3.385679999999999801e-01 9.613840000000000163e-01 -1.467589999999999950e+00 6.081959999999999589e-01 -1.108233000000000024e+00 1.617145999999999972e+00 4.289540000000000020e-01 -3.444360000000000199e-01 1.998499999999999929e-02 1.339599999999999957e-01 2.175340000000000051e-01 3.197050000000000169e-01 4.769470000000000098e-01 3.847899999999999932e-02 -6.930049999999999821e-01 6.913759999999999906e-01 -6.223849999999999660e-01 6.898020000000000262e-01
-8.644889999999999519e-01 -3.203179999999999916e-01 2.299071000000000087e+00 3.613399999999999945e-02 1.855080000000000062e-01 3.408510000000000151e-01 4.117919999999999914e-01 1.920719999999999927e-01 8.812699999999999700e-02 6.394000000000000378e-03 7.339609999999999745e-01 6.446939999999999893e-01 -1.226591999999999905e+00 5.553400000000000003e-02 -1.270717000000000096e+00 -1.024742999999999959e+00 2.284410000000000052e-01 -7.858690000000000397e-01 2.036660000000000137e-01 -4.139680000000000026e-01 2.759789999999999743e-01 5.800950000000000273e-01 -1.788339999999999930e-01 -1.353726999999999903e+00 1.367520999999999987e+00 1.009349999999999969e+00 -1.775894000000000084e+00 2.118359999999999965e-01 -2.778999999999999804e-01 1.873966000000000021e+00 -5.208599999999999897e-01 4.127800000000000219e-02 8.645530000000000159e-01 2.493259999999999921e-01 -6.327850000000000419e-01 -9.984189999999999454e-01 -3.396580000000000155e-01 -3.242389999999999994e-01 1.625890000000000113e-01 -3.445810000000000262e-01 -2.004100000000000048e-01 -2.902020000000000155e-01 -8.297200000000000408e-02 -7.506779999999999564e-01 1.665669999999999928e-01 1.337131999999999987e+00 6.529899999999999594e-01 -2.415710000000000079e-01
9.097920000000000451e-01 -1.026680999999999955e+00 2.875490000000000101e+00 -2.310699999999999976e-01 5.824780000000000513e-01 -1.044609999999999983e-01 1.979200000000000126e-01 -1.027720000000000022e-01 -2.466799999999999896e-02 -4.707790000000000030e-01 4.346409999999999996e-01 2.631850000000000023e-01 -6.112100000000000172e-02 5.847800000000000220e-02 -4.162669999999999981e-01 5.829950000000000410e-01 -6.618840000000000279e-01 -5.500599999999999934e-01 -7.809409999999999963e-01 2.185608000000000217e+00 -1.741611000000000020e+00 3.282619999999999982e-01 -1.447214999999999918e+00 7.842000000000000359e-02 1.242642000000000024e+00 -5.369279999999999609e-01 3.762440000000000229e-01 -1.385833000000000093e+00 1.142967999999999984e+00 8.619740000000000180e-01 4.069550000000000112e-01 -7.700599999999999667e-01 -4.367269999999999763e-01 -8.909839999999999982e-01 3.111539999999999861e-01 8.099199999999999455e-02 -2.017990000000000061e-01 5.173820000000000086e-01 3.138400000000000217e-02 -2.274789999999999868e-01 -3.322680000000000078e-01 -4.661719999999999753e-01 3.219389999999999752e-01 -2.665400000000000061e-02 -7.931169999999999609e-01 2.595020000000000104e-01 -3.282479999999999842e-01 -3.460599999999999787e-02
1.811752999999999947e+00 3.508180999999999994e+00 2.045069999999999943e-01 -5.696930000000000049e-01 -4.081670000000000020e-01 -8.932830000000000492e-01 -2.847129999999999939e-01 -3.199850000000000194e-01 -6.594430000000000014e-01 3.217720000000000025e-01 4.611140000000000239e-01 7.552000000000000379e-02 2.524580000000000157e-01 5.021899999999999975e-02 2.651069999999999816e-01 1.715211000000000041e+00 2.625179999999999736e-01 7.056649999999999867e-01 -8.487139999999999684e-01 5.379939999999999722e-01 1.718010000000000093e-01 3.847970000000000002e-01 4.211100000000000260e-02 -2.453780000000000128e-01 -1.637321999999999944e+00 -1.245430000000000009e-01 -4.474460000000000104e-01 3.409170000000000256e-01 -2.295900000000000024e-02 -8.240300000000000402e-02 -3.811599999999999988e-01 3.086300000000000154e-01 -3.113290000000000224e-01 -2.265454000000000079e+00 -3.399185000000000123e+00 -3.654100000000000126e-01 -7.502440000000000220e-01 1.335840000000000083e-01 -4.754950000000000010e-01 1.265768000000000004e+00 -1.096059999999999951e-01 4.745989999999999931e-01 -5.667290000000000383e-01 -3.446690000000000031e-01 2.244379999999999986e-01 1.211351999999999984e+00 -5.752359999999999696e-01 1.358551000000000064e+00
-9.071919999999999984e-01 -4.089829999999999854e-01 -6.874730000000000008e-01 4.351450000000000040e-01 -9.075210000000000221e-01 1.597547000000000050e+00 2.052019999999999955e-01 -3.010410000000000030e-01 -3.272550000000000181e-01 6.364530000000000465e-01 -5.657590000000000119e-01 -4.052000000000000046e-01 -1.594449999999999923e+00 -1.592030000000000112e-01 2.830906999999999840e+00 -1.032337999999999978e+00 -1.115410000000000013e-01 3.829879999999999951e-01 3.675999999999999823e-01 3.215149999999999952e-01 8.459459999999999757e-01 2.008409999999999918e-01 6.287709999999999688e-01 -4.146969999999999823e-01 -1.252739000000000047e+00 -4.608650000000000246e-01 -5.145520000000000094e-01 1.288207000000000102e+00 -7.280609999999999582e-01 2.787040000000000073e-01 -3.770640000000000103e-01 -2.402120000000000088e-01 9.974500000000000033e-02 1.623882999999999965e+00 1.671402999999999972e+00 -2.043187000000000086e+00 8.502800000000000635e-02 -2.217119999999999924e-01 -7.932190000000000074e-01 5.538499999999999673e-02 -5.039730000000000043e-01 -4.545600000000000196e-01 4.646939999999999960e-01 1.177610999999999963e+00 -5.389650000000000274e-01 -1.986539999999999973e-01 8.095719999999999583e-01 1.432710000000000095e-01
1.104538000000000020e+00 -1.284084999999999921e+00 -1.498130000000000017e-01 -2.389235999999999915e+00 5.188840000000000119e-01 1.830718000000000067e+00 9.162489999999999801e-01 3.375739999999999852e-01 3.236269999999999980e-01 4.062500000000000139e-02 1.341183000000000014e+00 -1.692457000000000100e+00 -2.410889999999999977e-01 6.359920000000000018e-01 1.528515999999999986e+00 -3.388000000000000039e-02 -1.561685999999999908e+00 5.239759999999999973e-01 -1.660540000000000072e-01 1.403389999999999915e-01 -1.438272999999999913e+00 -5.989039999999999919e-01 2.860090000000000132e-01 5.567969999999999864e-01 2.473910000000000053e+00 3.135709999999999886e-01 1.330649999999999888e-01 -2.518902000000000196e+00 -3.884219999999999895e-01 1.094210000000000044e-01 9.109580000000000455e-01 -1.262313000000000018e+00 4.550509999999999833e-01 -3.677579999999999738e-01 1.741489999999999982e-01 -2.529739999999999767e-01 4.797549999999999870e-01 9.979839999999999822e-01 -8.037900000000000600e-02 4.653199999999999698e-02 8.003419999999999979e-01 -3.291700000000000181e-02 -1.665250000000000064e-01 -2.805210000000000203e-01 -7.630900000000000183e-02 5.097840000000000149e-01 -7.690010000000000456e-01 -1.738051999999999930e+00
-3.694779999999999731e-01 -2.763300000000000201e-01 -7.334349999999999481e-01 7.266129999999999534e-01 3.892039999999999944e-01 -5.038080000000000336e-01 5.726069999999999771e-01 4.370899999999999785e-02 -6.125150000000000317e-01 -2.377599999999999991e-01 1.382399999999999948e-02 -5.645540000000000003e-01 -2.373029999999999862e-01 -2.914709999999999801e-01 4.740389999999999882e-01 -8.381819999999999826e-01 1.560439999999999883e-01 2.446139999999999981e-01 -6.414599999999999469e-02 -1.029640000000000000e-01 -9.018690000000000317e-01 -5.865609999999999991e-01 -4.111819999999999919e-01 5.315199999999999786e-02 -1.049059999999999993e-01 1.070486999999999966e+00 3.900009999999999866e-01 4.346610000000000196e-01 5.494740000000000180e-01 9.709989999999999455e-01 -1.509427000000000074e+00 -1.724330000000000029e-01 -4.046930000000000249e-01 5.084929999999999728e-01 3.939499999999999946e-02 6.688399999999999901e-01 6.445950000000000291e-01 -1.459360000000000102e-01 -1.441479999999999984e-01 2.309500000000000094e-02 -4.525129999999999986e-01 2.862500000000000044e-01 7.496509999999999563e-01 -6.860020000000000007e-01 1.042230999999999908e+00 2.880489999999999995e-01 2.766939999999999955e-01 -2.651040000000000063e-01
-5.965369999999999839e-01 6.807790000000000230e-01 6.166620000000000434e-01 -2.894689999999999763e-01 1.377399999999999979e-02 -1.343070000000000097e-01 9.166159999999999863e-01 3.455600000000000338e-02 -2.525819999999999732e-01 9.489699999999999525e-02 2.067190000000000139e-01 1.310550000000000048e-01 -1.482839999999999991e-01 1.242000000000000048e-01 -4.109579999999999900e-01 -4.872540000000000204e-01 -2.445229999999999904e-01 -3.566929999999999823e-01 -3.067960000000000131e-01 1.391560000000000019e-01 1.427759999999999863e-01 4.138669999999999849e-01 -4.025480000000000169e-01 1.047649999999999970e-01 1.911120000000000041e-01 9.087900000000000145e-02 -6.104479999999999906e-01 5.669530000000000403e-01 5.437990000000000324e-01 1.719440000000000135e-01 2.354020999999999919e+00 -4.580670000000000019e-01 -2.412940000000000085e-01 1.526540000000000119e-01 1.080724999999999936e+00 1.141400000000000053e-02 -2.923820000000000086e+00 1.521530000000000105e-01 3.969670000000000143e-01 -8.257860000000000200e-01 -5.004830000000000112e-01 -4.384489999999999776e-01 9.754260000000000153e-01 -3.919460000000000166e-01 9.884979999999999878e-01 -8.759999999999999731e-02 -1.069172999999999929e+00 -1.193489999999999968e-01
-6.084840000000000249e-01 2.129790000000000016e-01 5.626849999999999907e-01 -9.774929999999999453e-01 -1.723159999999999969e-01 9.610499999999999599e-02 5.868430000000000035e-01 2.332680000000000031e-01 -3.199810000000000154e-01 -1.033911999999999942e+00 -1.529969999999999941e-01 3.792309999999999848e-01 9.075419999999999598e-01 -2.356300000000000061e-02 5.108890000000000375e-01 -2.525830000000000020e-01 2.863979999999999859e-01 6.433379999999999654e-01 -1.167442000000000091e+00 2.479889999999999872e-01 -3.114290000000000114e-01 -1.130069999999999963e-01 8.299579999999999735e-01 -2.039739999999999887e-01 8.642840000000000522e-01 -9.730259999999999465e-01 -1.204869999999999969e-01 1.735800000000000121e-01 3.069020000000000081e-01 -1.135170000000000068e-01 -2.021270000000000011e-01 -2.047705000000000108e+00 -1.545638999999999985e+00 1.720150000000000012e-01 -1.106762000000000024e+00 -6.059949999999999504e-01 9.903980000000000006e-01 6.363189999999999680e-01 -5.968799999999999800e-02 3.965440000000000076e-01 7.576910000000000034e-01 2.128899999999999959e-01 3.722520000000000273e-01 1.298659999999999926e+00 1.173240999999999978e+00 -1.084100000000000064e-01 -3.337930000000000064e-01 -2.976690000000000169e-01
-2.148759999999999781e+00 -1.528998000000000079e+00 -1.180600000000000052e-02 4.301570000000000116e-01 -2.756149999999999989e-01 3.361609999999999876e-01 -2.712300000000000266e-01 -1.393020000000000092e-01 -3.721130000000000271e-01 1.508051000000000030e+00 5.431350000000000344e-01 -3.239469999999999850e-01 1.060799999999999937e-01 2.388679999999999970e-01 -6.814630000000000409e-01 -6.395030000000000436e-01 3.361100000000000199e-02 1.617599999999999941e-02 -4.654460000000000264e-01 -1.352271999999999919e+00 -1.287580000000000113e-01 -2.936650000000000094e-01 2.224100000000000035e-02 4.144499999999999851e-01 3.849810000000000176e-01 9.689020000000000410e-01 1.337089999999999945e-01 1.104860000000000009e-01 6.219360000000000444e-01 5.167119999999999491e-01 -1.651749999999999885e-01 -2.255300000000000082e-01 -2.396999999999999825e-03 -8.006349999999999856e-01 -8.984360000000000124e-01 -5.704280000000000461e-01 5.845460000000000100e-01 6.764440000000000452e-01 3.336450000000000249e-01 2.691990000000000216e-01 9.809320000000000261e-01 5.917360000000000397e-01 8.620579999999999909e-01 7.370449999999999502e-01 -1.745819999999999872e-01 5.288570000000000215e-01 -4.029610000000000136e-01 -7.709299999999999486e-02
2.572550000000000114e-01 7.853599999999999470e-02 -5.063290000000000290e-01 -5.529239999999999711e-01 6.965470000000000272e-01 5.216100000000000181e-01 -2.361040000000000083e-01 -5.305729999999999613e-01 1.924279999999999879e-01 2.394699999999999954e-02 -1.572159999999999946e-01 8.667800000000000504e-02 1.933660000000000101e-01 3.096929999999999961e-01 5.576790000000000358e-01 3.566999999999999858e-03 -1.389090000000000047e-01 5.824399999999999716e-02 -1.034358000000000111e+00 -1.232436000000000087e+00 4.136349999999999749e-01 -1.292899999999999883e-01 1.002316999999999902e+00 1.342465999999999937e+00 2.837480000000000002e-01 -1.619559999999999889e-01 2.123210000000000097e-01 5.951800000000000146e-02 -5.252300000000000024e-02 1.639170000000000071e-01 -3.035209999999999853e-01 -7.059279999999999999e-01 -7.233720000000000150e-01 6.558890000000000553e-01 2.825899999999999940e-02 -1.216463000000000072e+00 -7.617749999999999799e-01 1.996169999999999889e-01 1.405699999999999950e+00 1.639156999999999975e+00 2.589170000000000083e-01 -1.629637999999999920e+00 7.136000000000000676e-02 1.574089999999999934e-01 1.057810000000000000e-01 -1.698350000000000137e-01 2.482449999999999934e-01 -9.846580000000000332e-01
1.819250000000000034e-01 -7.391090000000000160e-01 -1.552627999999999897e+00 -3.412129999999999885e-01 4.350999999999999833e-03 4.556299999999999795e-01 3.508939999999999837e-01 -7.899709999999999788e-01 6.834759999999999724e-01 -5.459629999999999761e-01 -8.617460000000000120e-01 -4.053149999999999809e-01 -7.337360000000000548e-01 1.132459999999999994e-01 7.857870000000000132e-01 5.028059999999999752e-01 2.905530000000000057e-01 2.931210000000000204e-01 -6.064540000000000486e-01 2.481109999999999982e-01 -2.289409000000000027e+00 -1.426310000000000078e-01 -8.622389999999999777e-01 1.035727000000000064e+00 1.251060000000000061e+00 2.295020000000000115e-01 3.578489999999999727e-01 1.887759999999999994e-01 -2.705190000000000095e-01 -7.542790000000000328e-01 -2.230290000000000050e-01 9.791520000000000223e-01 -1.014494000000000007e+00 5.740429999999999700e-01 8.827700000000000546e-01 1.554929999999999923e+00 1.279639999999999944e-01 5.909189999999999721e-01 1.954140000000000044e-01 2.645330000000000181e-01 8.642800000000000482e-02 -3.009519999999999973e-01 -3.516819999999999946e-01 2.820679999999999854e-01 5.465860000000000163e-01 -4.972929999999999851e-01 -1.835140000000000104e-01 4.085570000000000035e-01
-1.670585999999999904e+00 -4.750070000000000126e-01 -7.712000000000000105e-03 -1.280891999999999920e+00 -1.175864000000000020e+00 -1.794364999999999988e+00 -3.023779999999999801e-01 -5.334719999999999462e-01 2.126859999999999862e-01 7.962919999999999998e-01 9.853969999999999674e-01 1.586211000000000038e+00 -3.696809999999999818e-01 -3.542210000000000081e-01 4.329000000000000382e-03 -2.930960000000000232e-01 -2.017359999999999987e-01 1.235171999999999937e+00 6.516939999999999955e-01 9.553009999999999557e-01 -2.016320000000000057e-01 3.597969999999999779e-01 7.484509999999999774e-01 2.804099999999999995e-02 1.020003999999999911e+00 -2.019589999999999996e-01 -2.794119999999999937e-01 1.671110000000000095e-01 -1.247830000000000050e-01 -7.685110000000000552e-01 -1.438719999999999999e-01 -9.830579999999999874e-01 -1.728379999999999916e-01 1.192212000000000049e+00 4.676190000000000069e-01 -6.314109999999999445e-01 2.173879999999999979e-01 -5.044300000000000173e-02 3.322519999999999918e-01 4.392909999999999870e-01 3.015840000000000187e-01 5.367070000000000451e-01 -2.155970000000000109e-01 -1.073250000000000037e-01 1.418190000000000006e-01 -5.676870000000000527e-01 7.495169999999999888e-01 -2.213360000000000050e-01
1.597976999999999981e+00 -9.328680000000000305e-01 4.930149999999999810e-01 5.561620000000000452e-01 1.074556999999999984e+00 -3.352459999999999885e-01 -4.164900000000000269e-01 2.515330000000000066e-01 1.816760000000000042e-01 4.512140000000000040e-01 3.224440000000000084e-01 -8.813269999999999715e-01 -1.098484999999999934e+00 6.124479999999999924e-01 1.525268999999999986e+00 -8.688820000000000432e-01 -1.314715999999999996e+00 -8.456069999999999975e-01 -1.794769999999999976e-01 -1.230437999999999921e+00 1.801652000000000031e+00 -1.467961000000000071e+00 -2.386109999999999898e-01 -1.031126999999999905e+00 -1.807236000000000065e+00 -6.833249999999999602e-01 3.350259999999999905e-01 2.340869999999999895e-01 -3.054029999999999800e-01 -5.912190000000000500e-01 2.815748000000000140e+00 2.786339999999999928e-01 6.344969999999999777e-01 2.596149999999999847e-01 -2.552199999999999955e-02 2.168130000000000057e-01 4.713519999999999932e-01 -6.924199999999999799e-02 -2.693329999999999891e-01 1.328937000000000035e+00 9.307360000000000078e-01 2.230659999999999865e-01 -9.106969999999999787e-01 -2.298379999999999868e-01 -2.479989999999999972e-01 -9.658619999999999983e-01 1.559611999999999998e+00 -1.209155999999999898e+00
8.444999999999999729e-02 1.669829999999999925e-01 7.993339999999999890e-01 8.300309999999999633e-01 -5.418290000000000051e-01 -2.797379999999999867e-01 -1.614099999999999979e-01 -2.447500000000000023e-02 -1.319811999999999985e+00 -2.948399999999999910e-01 1.974499999999999866e-02 1.419400000000000002e-02 -4.990240000000000231e-01 -2.221110000000000029e-01 -7.035600000000000187e-02 -5.142010000000000192e-01 -3.002040000000000264e-01 6.224049999999999860e-01 -8.035579999999999945e-01 -4.125119999999999898e-01 4.084100000000000230e-02 -5.045230000000000548e-01 -2.414789999999999992e-01 3.762670000000000181e-01 5.698849999999999749e-01 9.967880000000000074e-01 -3.973050000000000193e-01 -2.941000000000000038e-03 8.425789999999999669e-01 -1.969359000000000082e+00 1.211119999999999974e-01 -2.786799999999999833e-01 -5.078580000000000316e-01 1.020261000000000084e+00 -1.158463999999999938e+00 1.357771000000000061e+00 -1.950379999999999892e-01 1.653110000000000135e-01 1.167386999999999952e+00 4.147589999999999888e-01 8.782200000000000006e-01 -2.713940000000000241e-01 -7.215580000000000327e-01 -2.830679999999999863e-01 -7.647199999999999831e-02 6.565959999999999575e-01 3.931950000000000167e-01 5.140940000000000509e-01
1.826953999999999967e+00 2.865059999999999829e-01 -4.345310000000000006e-01 1.100235999999999992e+00 -1.752053000000000083e+00 -1.664599999999999969e-01 1.070877999999999997e+00 -3.036699999999999955e-01 5.706729999999999858e-01 -2.232629999999999892e+00 -2.848669999999999813e-01 -6.118699999999999833e-02 -1.401378999999999930e+00 1.544078999999999979e+00 -3.460250000000000270e-01 3.642600000000000005e-02 5.816019999999999524e-01 -3.719259999999999788e-01 -4.528249999999999775e-01 -5.889450000000000518e-01 3.126539999999999875e-01 1.318360000000000087e-01 -2.362209999999999865e-01 5.068160000000000442e-01 -3.597960000000000047e-01 4.532240000000000157e-01 1.069039999999999990e+00 7.348139999999999672e-01 4.214539999999999953e-01 1.487467000000000095e+00 -1.335580000000000100e-01 3.744999999999999996e-01 -6.692099999999999715e-01 -2.277450000000000030e-01 2.145499999999999907e-01 4.085770000000000235e-01 2.726979999999999960e-01 -4.242540000000000200e-01 1.055099999999999962e-02 -4.109590000000000187e-01 5.710760000000000280e-01 -3.752759999999999985e-01 -4.631899999999999906e-01 -1.032375999999999960e+00 -2.155825000000000102e+00 5.082419999999999716e-01 1.753949999999999954e-01 2.146599999999999897e-01
-6.574630000000000196e-01 1.546170000000000044e-01 -1.127081000000000000e+00 -1.350590000000000124e-01 -3.867450000000000054e-01 -1.127186000000000021e+00 2.781139999999999723e-01 -2.614900000000000002e-01 3.558230000000000004e-01 -1.182498000000000049e+00 4.251880000000000104e-01 8.553089999999999860e-01 -3.722699999999999898e-01 -4.170809999999999795e-01 2.355271999999999810e+00 4.621140000000000247e-01 -8.344810000000000283e-01 -1.587359999999999882e-01 -1.617500000000000049e-01 7.633919999999999595e-01 1.393400000000000021e-02 3.636610000000000120e-01 3.946149999999999936e-01 -4.387240000000000029e-01 8.690029999999999699e-01 4.382320000000000104e-01 3.477399999999999936e-02 9.061700000000000310e-01 -4.240849999999999898e-01 6.125859999999999639e-01 2.037329999999999974e-01 -3.422879999999999812e-01 -6.271740000000000093e-01 -7.920970000000000510e-01 3.713080000000000269e-01 -8.102610000000000090e-01 1.059879000000000016e+00 5.006509999999999572e-01 -9.407969999999999944e-01 4.677200000000000246e-01 -1.242639000000000049e+00 -2.522260000000000058e-01 -7.057499999999999885e-01 4.595580000000000220e-01 7.010999999999999455e-01 -6.035070000000000157e-01 4.012499999999999956e-01 5.533879999999999910e-01
-2.872350000000000181e-01 -9.343399999999999483e-01 2.184319999999999873e-01 7.747880000000000322e-01 1.107896999999999910e+00 -2.406469999999999998e-01 -1.384360000000000035e-01 -9.148599999999999788e-02 -8.235820000000000363e-01 4.901079999999999881e-01 -8.025679999999999481e-01 5.622089999999999588e-01 -1.902443000000000106e+00 -1.813140000000000029e-01 -1.444339000000000039e+00 1.373855999999999966e+00 -4.200499999999999790e-01 1.486653000000000002e+00 -3.037619999999999765e-01 1.262113999999999958e+00 1.186755000000000004e+00 1.304190000000000071e-01 -8.804640000000000244e-01 -9.761800000000000477e-01 5.252149999999999874e-01 -6.126679999999999904e-01 -8.062380000000000102e-01 1.793420000000000014e-01 4.838640000000000163e-01 -2.775409999999999822e-01 -5.424350000000000005e-01 4.982059999999999822e-01 -8.113679999999999781e-01 3.444780000000000064e-01 -1.791069999999999884e-01 -5.112799999999999984e-02 5.121269999999999989e-01 2.497679999999999900e-01 2.129440000000000222e+00 -6.210130000000000372e-01 8.573589999999999822e-01 -1.471459999999999990e-01 -2.098839999999999872e-01 6.785910000000000553e-01 -1.403069999999999873e-01 -3.251249999999999973e-01 -1.035801999999999889e+00 1.349869999999999959e-01