6.883084595999999777e+00 0.000000000000000000e+00 0.000000000000000000e+00 -1.791052720000000098e-01 7.079731296000000285e+00 0.000000000000000000e+00 1.698234100000000149e-02 -1.290967899999999891e-01 7.021305479999999655e+00
5.960776015000000427e+00 0.000000000000000000e+00 0.000000000000000000e+00 -3.092233399999999924e-02 5.890160299999999793e+00 0.000000000000000000e+00 -4.738960200000000289e-02 -3.636807599999999918e-02 5.751327485000000017e+00
6.170789705999999875e+00 0.000000000000000000e+00 0.000000000000000000e+00 -3.201180800000000271e-02 6.097686013999999766e+00 0.000000000000000000e+00 -4.905926199999999932e-02 -3.764941900000000341e-02 5.953961758000000160e+00
6.191098070999999869e+00 0.000000000000000000e+00 0.000000000000000000e+00 -4.628308099999999675e-02 6.220741190000000032e+00 0.000000000000000000e+00 5.198377299999999701e-02 5.109522200000000264e-02 6.224316467999999603e+00
6.143805395000000225e+00 0.000000000000000000e+00 0.000000000000000000e+00 -1.294190359999999873e-01 6.276620171000000248e+00 0.000000000000000000e+00 -1.301499030000000112e-01 1.358729379999999987e-01 6.111679790000000168e+00
6.620141782000000141e+00 0.000000000000000000e+00 0.000000000000000000e+00 -1.394530449999999977e-01 6.763253842000000127e+00 0.000000000000000000e+00 -1.402405770000000051e-01 1.464073250000000048e-01 6.585525441999999785e+00
6.348286977999999969e+00 0.000000000000000000e+00 0.000000000000000000e+00 -3.293259899999999990e-02 6.273080525000000129e+00 0.000000000000000000e+00 -5.047040800000000133e-02 -3.873237100000000155e-02 6.125222167999999634e+00
6.137433184999999902e+00 0.000000000000000000e+00 0.000000000000000000e+00 -1.292848060000000021e-01 6.270110208000000185e+00 0.000000000000000000e+00 -1.300149150000000087e-01 1.357320130000000125e-01 6.105340898999999766e+00
6.188120555000000245e+00 0.000000000000000000e+00 0.000000000000000000e+00 -1.624047560000000112e-01 6.476621490000000314e+00 0.000000000000000000e+00 -8.142311400000000476e-02 -1.659282770000000129e-01 6.130546504999999868e+00
6.008172671999999714e+00 0.000000000000000000e+00 0.000000000000000000e+00 -4.876784499999999717e-02 5.839231043999999926e+00 0.000000000000000000e+00 -1.385002049999999874e-01 5.756650399999999751e-02 6.071553875000000211e+00
6.310428278999999918e+00 0.000000000000000000e+00 0.000000000000000000e+00 -1.329289409999999949e-01 6.446845052999999659e+00 0.000000000000000000e+00 -1.336796299999999937e-01 1.395578749999999979e-01 6.277431412000000321e+00
6.158762950999999930e+00 0.000000000000000000e+00 0.000000000000000000e+00 -4.604135200000000067e-02 6.188251248000000260e+00 0.000000000000000000e+00 5.171226999999999768e-02 5.082836000000000298e-02 6.191807854000000333e+00
6.154379624999999798e+00 0.000000000000000000e+00 0.000000000000000000e+00 -1.601435840000000055e-01 6.330207545000000380e+00 0.000000000000000000e+00 1.518443799999999975e-02 -1.154294480000000039e-01 6.277967208999999826e+00
6.241121258999999810e+00 0.000000000000000000e+00 0.000000000000000000e+00 -1.314689910000000073e-01 6.376039776999999908e+00 0.000000000000000000e+00 -1.322114349999999883e-01 1.380251200000000011e-01 6.208486794999999780e+00
6.008593360999999966e+00 0.000000000000000000e+00 0.000000000000000000e+00 -1.265708000000000111e-01 6.138485166999999798e+00 0.000000000000000000e+00 -1.272855820000000082e-01 1.328826640000000114e-01 5.977174771999999692e+00
6.164464686999999721e+00 0.000000000000000000e+00 0.000000000000000000e+00 -5.003645400000000104e-02 5.991128340000000385e+00 0.000000000000000000e+00 -1.421030440000000117e-01 5.906399600000000055e-02 6.229494640000000416e+00
6.127247825000000425e+00 0.000000000000000000e+00 0.000000000000000000e+00 -1.608071759999999961e-01 6.412910766999999623e+00 0.000000000000000000e+00 -8.062215200000000248e-02 -1.642960350000000069e-01 6.070240132000000344e+00
6.514004056000000098e+00 0.000000000000000000e+00 0.000000000000000000e+00 -3.379227900000000145e-02 6.436834397000000152e+00 0.000000000000000000e+00 -5.178789799999999888e-02 -3.974344900000000014e-02 6.285116312999999622e+00
6.020918087000000085e+00 0.000000000000000000e+00 0.000000000000000000e+00 1.344282189999999877e-01 5.904917750000000076e+00 0.000000000000000000e+00 1.559721330000000128e-01 -3.313200000000000086e-03 5.730157200999999922e+00
6.259108177999999967e+00 0.000000000000000000e+00 0.000000000000000000e+00 -4.679150800000000249e-02 6.289076931000000314e+00 0.000000000000000000e+00 5.255482200000000104e-02 5.165651000000000270e-02 6.292691484999999751e+00
6.390698642000000262e+00 0.000000000000000000e+00 0.000000000000000000e+00 -3.315261600000000280e-02 6.314989749000000430e+00 0.000000000000000000e+00 -5.080758999999999970e-02 -3.899113399999999674e-02 6.166143579999999957e+00
6.151590441999999825e+00 0.000000000000000000e+00 0.000000000000000000e+00 -4.598773200000000339e-02 6.181044398000000051e+00 0.000000000000000000e+00 5.165204600000000007e-02 5.076916499999999804e-02 6.184596861000000168e+00
6.347618269999999896e+00 0.000000000000000000e+00 0.000000000000000000e+00 -3.292913000000000090e-02 6.272419739000000050e+00 0.000000000000000000e+00 -5.046509099999999665e-02 -3.872829099999999802e-02 6.124576957000000377e+00
6.498019754999999620e+00 0.000000000000000000e+00 0.000000000000000000e+00 -3.370935800000000176e-02 6.421039457000000006e+00 0.000000000000000000e+00 -5.166081899999999671e-02 -3.964592499999999853e-02 6.269693664000000055e+00
6.121441042999999915e+00 0.000000000000000000e+00 0.000000000000000000e+00 8.333693300000000193e-02 6.119904895000000344e+00 0.000000000000000000e+00 1.059538619999999959e-01 -1.793256769999999889e-01 6.089476217999999719e+00
6.456906404999999793e+00 0.000000000000000000e+00 0.000000000000000000e+00 -1.360144970000000120e-01 6.596489695999999903e+00 0.000000000000000000e+00 -1.367826109999999984e-01 1.427973029999999866e-01 6.423143612999999696e+00
6.664713332999999906e+00 0.000000000000000000e+00 0.000000000000000000e+00 -3.457410400000000134e-02 6.585758260999999614e+00 0.000000000000000000e+00 -5.298607300000000159e-02 -4.066296099999999747e-02 6.430529997999999914e+00
6.101762289999999922e+00 0.000000000000000000e+00 0.000000000000000000e+00 -1.601383180000000017e-01 6.386237053000000330e+00 0.000000000000000000e+00 -8.028681399999999801e-02 -1.636126659999999899e-01 6.044991715000000099e+00
6.343411382000000209e+00 0.000000000000000000e+00 0.000000000000000000e+00 8.635882400000000070e-02 6.341819530999999621e+00 0.000000000000000000e+00 1.097958680000000048e-01 -1.858282280000000120e-01 6.310287477000000145e+00
6.248837141000000095e+00 0.000000000000000000e+00 0.000000000000000000e+00 1.395169370000000075e-01 6.128445664000000015e+00 0.000000000000000000e+00 1.618763850000000115e-01 -3.438618999999999964e-03 5.947069636000000159e+00
6.013967036000000377e+00 0.000000000000000000e+00 0.000000000000000000e+00 -4.495889499999999872e-02 6.042762047000000081e+00 0.000000000000000000e+00 5.049648600000000015e-02 4.963335700000000295e-02 6.046235034999999591e+00
6.090071565999999770e+00 0.000000000000000000e+00 0.000000000000000000e+00 -1.282871349999999966e-01 6.221724742000000141e+00 0.000000000000000000e+00 -1.290116099999999988e-01 1.346845899999999929e-01 6.058226932000000176e+00
6.222705934999999577e+00 0.000000000000000000e+00 0.000000000000000000e+00 -4.651937400000000222e-02 6.252500394000000128e+00 0.000000000000000000e+00 5.224916899999999809e-02 5.135608199999999735e-02 6.256093925000000056e+00
6.526380271999999927e+00 0.000000000000000000e+00 0.000000000000000000e+00 -3.385648200000000024e-02 6.449063995000000382e+00 0.000000000000000000e+00 -5.188629200000000052e-02 -3.981895900000000099e-02 6.297057654999999698e+00
6.034151243000000164e+00 0.000000000000000000e+00 0.000000000000000000e+00 -3.130297800000000213e-02 5.962666270999999796e+00 0.000000000000000000e+00 -4.797295299999999874e-02 -3.681575599999999809e-02 5.822124470000000329e+00
6.430678402999999932e+00 0.000000000000000000e+00 0.000000000000000000e+00 1.435768819999999890e-01 6.306783532999999942e+00 0.000000000000000000e+00 1.665869909999999898e-01 -3.538682999999999933e-03 6.120129459000000161e+00
6.254671936000000265e+00 0.000000000000000000e+00 0.000000000000000000e+00 8.515073099999999340e-02 6.253102353000000058e+00 0.000000000000000000e+00 1.082599080000000019e-01 -1.832286340000000013e-01 6.222011408000000188e+00
6.164106828999999621e+00 0.000000000000000000e+00 0.000000000000000000e+00 -1.603966960000000053e-01 6.340212650999999866e+00 0.000000000000000000e+00 1.520843700000000000e-02 -1.156118879999999960e-01 6.287889747000000362e+00
5.931421878000000092e+00 0.000000000000000000e+00 0.000000000000000000e+00 -1.556678019999999940e-01 6.207955075000000100e+00 0.000000000000000000e+00 -7.804548000000000041e-02 -1.590451579999999920e-01 5.876236143999999939e+00
6.029308837000000310e+00 0.000000000000000000e+00 0.000000000000000000e+00 1.346155579999999963e-01 5.913146841999999737e+00 0.000000000000000000e+00 1.561894950000000115e-01 -3.317816999999999815e-03 5.738142746000000294e+00
6.173750441000000144e+00 0.000000000000000000e+00 0.000000000000000000e+00 1.856460699999999964e-01 6.348251429000000279e+00 0.000000000000000000e+00 -9.056106099999999826e-02 2.140633000000000119e-02 5.999454637999999562e+00
5.988678505000000207e+00 0.000000000000000000e+00 0.000000000000000000e+00 -1.261512939999999972e-01 6.118139797999999629e+00 0.000000000000000000e+00 -1.268637069999999922e-01 1.324422389999999894e-01 5.957364048999999717e+00
5.977712544000000072e+00 0.000000000000000000e+00 0.000000000000000000e+00 1.797511659999999900e-01 6.146672523000000332e+00 0.000000000000000000e+00 -8.768543500000000601e-02 2.072660499999999864e-02 5.808951235000000324e+00
6.275211424000000093e+00 0.000000000000000000e+00 0.000000000000000000e+00 -4.691189099999999723e-02 6.305257280000000186e+00 0.000000000000000000e+00 5.269003399999999671e-02 5.178941000000000100e-02 6.308881132999999863e+00
6.005851280999999986e+00 0.000000000000000000e+00 0.000000000000000000e+00 -3.115616800000000144e-02 5.934701570999999731e+00 0.000000000000000000e+00 -4.774796099999999849e-02 -3.664309100000000263e-02 5.794818905999999714e+00
6.012188254999999870e+00 0.000000000000000000e+00 0.000000000000000000e+00 -4.880043900000000101e-02 5.843133714000000367e+00 0.000000000000000000e+00 -1.385927720000000030e-01 5.760497900000000060e-02 6.075611819999999774e+00
6.206719276000000285e+00 0.000000000000000000e+00 0.000000000000000000e+00 -1.307443149999999998e-01 6.340894103000000115e+00 0.000000000000000000e+00 -1.314826659999999980e-01 1.372643050000000031e-01 6.174264697999999996e+00
6.161084848999999863e+00 0.000000000000000000e+00 0.000000000000000000e+00 8.387664200000000125e-02 6.159538751999999562e+00 0.000000000000000000e+00 1.066400430000000038e-01 -1.804870299999999927e-01 6.128913013000000021e+00
6.162434240999999702e+00 0.000000000000000000e+00 0.000000000000000000e+00 1.853057889999999985e-01 6.336615377000000215e+00 0.000000000000000000e+00 -9.039506699999999562e-02 2.136709300000000020e-02 5.988457913999999604e+00
6.011067366999999884e+00 0.000000000000000000e+00 0.000000000000000000e+00 -1.564144450000000131e-01 6.182800918999999951e+00 0.000000000000000000e+00 1.483084999999999959e-02 -1.127415320000000054e-01 6.131777063000000361e+00
6.321983610000000198e+00 0.000000000000000000e+00 0.000000000000000000e+00 -4.726154800000000045e-02 6.352253411999999599e+00 0.000000000000000000e+00 5.308275800000000072e-02 5.217542199999999908e-02 6.355904275000000325e+00
6.262864529999999874e+00 0.000000000000000000e+00 0.000000000000000000e+00 8.526226400000000427e-02 6.261292892000000165e+00 0.000000000000000000e+00 1.084017109999999978e-01 -1.834686339999999916e-01 6.230161222999999637e+00
6.223950262999999872e+00 0.000000000000000000e+00 0.000000000000000000e+00 -5.051929399999999931e-02 6.048941261999999597e+00 0.000000000000000000e+00 -1.434743029999999975e-01 5.963394899999999860e-02 6.289607739000000031e+00
6.278065789000000230e+00 0.000000000000000000e+00 0.000000000000000000e+00 8.546921300000000221e-02 6.276490336000000170e+00 0.000000000000000000e+00 1.086648239999999932e-01 -1.839139499999999927e-01 6.245283104000000307e+00
6.236033824999999808e+00 0.000000000000000000e+00 0.000000000000000000e+00 -1.636622209999999966e-01 6.526768559999999830e+00 0.000000000000000000e+00 -8.205355500000000024e-02 -1.672130229999999884e-01 6.178013992000000343e+00
6.113528322999999709e+00 0.000000000000000000e+00 0.000000000000000000e+00 -3.171475700000000314e-02 6.041102992999999977e+00 0.000000000000000000e+00 -4.860401999999999778e-02 -3.730005399999999915e-02 5.898712414000000237e+00
5.965675062999999945e+00 0.000000000000000000e+00 0.000000000000000000e+00 -4.459787600000000157e-02 5.994238851999999618e+00 0.000000000000000000e+00 5.009100100000000305e-02 4.923480200000000112e-02 5.997683950999999958e+00
6.329831783000000378e+00 0.000000000000000000e+00 0.000000000000000000e+00 1.413252929999999907e-01 6.207879845999999979e+00 0.000000000000000000e+00 1.639745549999999941e-01 -3.483188999999999817e-03 6.024152901999999976e+00
6.163329205000000144e+00 0.000000000000000000e+00 0.000000000000000000e+00 -3.197310600000000114e-02 6.090313895999999616e+00 0.000000000000000000e+00 -4.899994900000000098e-02 -3.760390000000000260e-02 5.946763402000000198e+00
6.336484293999999906e+00 0.000000000000000000e+00 0.000000000000000000e+00 -3.287137100000000339e-02 6.261417662999999578e+00 0.000000000000000000e+00 -5.037657300000000088e-02 -3.866035999999999778e-02 6.113834203999999772e+00
6.296743568000000124e+00 0.000000000000000000e+00 0.000000000000000000e+00 1.405865370000000114e-01 6.175429116000000107e+00 0.000000000000000000e+00 1.631174029999999942e-01 -3.464980999999999790e-03 5.992662575999999852e+00
6.066709963000000094e+00 0.000000000000000000e+00 0.000000000000000000e+00 1.824273389999999939e-01 6.238185452999999825e+00 0.000000000000000000e+00 -8.899091400000000429e-02 2.103518700000000033e-02 5.895436100000000401e+00
6.398416389000000315e+00 0.000000000000000000e+00 0.000000000000000000e+00 -9.693686699999999601e-02 6.324941310999999899e+00 0.000000000000000000e+00 -1.277087650000000019e-01 1.738100949999999978e-01 6.257264397000000145e+00
6.493113708000000095e+00 0.000000000000000000e+00 0.000000000000000000e+00 1.449708670000000033e-01 6.368015945999999872e+00 0.000000000000000000e+00 1.682043799999999867e-01 -3.573039999999999983e-03 6.179549652000000393e+00
6.142155565000000372e+00 0.000000000000000000e+00 0.000000000000000000e+00 -9.305448099999999445e-02 6.071623212000000436e+00 0.000000000000000000e+00 -1.225939439999999964e-01 1.668488860000000018e-01 6.006656804000000349e+00
5.995456292000000076e+00 0.000000000000000000e+00 0.000000000000000000e+00 -1.573483599999999927e-01 6.274974883999999697e+00 0.000000000000000000e+00 -7.888804300000000491e-02 -1.607621770000000061e-01 5.939674784000000152e+00
5.910789590000000260e+00 0.000000000000000000e+00 0.000000000000000000e+00 -1.538051089999999954e-01 6.079658249999999597e+00 0.000000000000000000e+00 1.458343900000000012e-02 -1.108607560000000047e-01 6.029485583999999676e+00
