5.737326705000000082e+00 0.000000000000000000e+00 0.000000000000000000e+00 -1.604099800000000076e-01 5.744975503000000039e+00 0.000000000000000000e+00 -2.787933500000000162e-02 1.365142020000000012e-01 5.545491292000000350e+00
5.877629480000000406e+00 0.000000000000000000e+00 0.000000000000000000e+00 1.020296700000000029e-01 5.975694984000000431e+00 0.000000000000000000e+00 6.933392300000000563e-02 -1.322095460000000111e-01 5.997017587000000205e+00
5.823891380000000062e+00 0.000000000000000000e+00 0.000000000000000000e+00 -2.918131100000000144e-02 5.657262334000000337e+00 0.000000000000000000e+00 -5.981124799999999742e-02 3.180540099999999704e-02 5.612771902000000424e+00
5.568506023000000305e+00 0.000000000000000000e+00 0.000000000000000000e+00 -9.115262699999999996e-02 5.812261880000000325e+00 0.000000000000000000e+00 3.707416399999999973e-02 -6.844969099999999307e-02 5.781004751000000219e+00
5.895548931999999631e+00 0.000000000000000000e+00 0.000000000000000000e+00 -1.894887799999999886e-02 5.799920101999999744e+00 0.000000000000000000e+00 3.500018800000000152e-02 -6.737859300000000051e-02 5.952411608000000243e+00
