6.365300000000000402e-01 1.239849999999999897e+00 1.591849999999999987e+01 3.418860000000000010e+00 1.500769999999999937e+00 1.788169999999999860e+01 9.871100000000000430e-01 1.470299999999999940e-01 1.826940000000000097e+01 3.336120000000000196e+00 1.676490000000000036e+00 4.557419999999999582e+00 3.901850000000000041e+00 1.468059999999999921e+00 7.157949999999999591e+00 1.381170000000000009e+00 1.180209999999999981e+00 1.184290000000000020e+01 2.681529999999999969e+00 1.013640000000000096e+00 2.226510000000000211e+00 1.333919999999999995e+00 6.988400000000000167e-01 4.454690000000000261e+00 3.442660000000000053e+00 1.939210000000000100e+00 1.028669999999999973e+01 3.797470000000000123e+00 2.410000000000000142e+00 1.274259999999999948e+01 1.030729999999999924e+00 4.907199999999999895e-01 8.873409999999999798e+00 1.526580000000000048e+00 1.906530000000000058e+00 6.622169999999999668e+00
2.894249999999999989e+00 2.443099999999999994e-01 2.025240000000000151e+01 1.642989999999999950e+00 2.412840000000000096e+00 1.841540000000000177e+01 3.112550000000000150e+00 4.694200000000000039e-01 1.094800000000000040e+01 1.786580000000000057e+00 1.188469999999999915e+00 3.403329999999999966e+00 3.834909999999999819e+00 1.190569999999999906e+00 1.797240000000000038e+01 4.047159999999999869e+00 1.312599999999999989e+00 6.902660000000000018e+00 3.651199999999999779e+00 2.205290000000000195e+00 4.673840000000000217e+00 1.183799999999999963e+00 1.179030000000000022e+00 1.221649999999999991e+01 2.019039999999999946e+00 1.251800000000000135e-01 5.921359999999999957e+00 1.147839999999999971e+00 1.874100000000000099e+00 9.384799999999999809e-01 2.151959999999999873e+00 5.009099999999999664e-01 8.276149999999999451e+00 3.302779999999999827e+00 2.354070000000000107e+00 1.288069999999999915e+01
2.372710000000000097e+00 1.540400000000000102e-01 7.718899999999999650e-01 2.623800000000000132e+00 1.370440000000000103e+00 1.916310000000000002e+01 4.065920000000000201e+00 1.014780000000000015e+00 1.035249999999999915e+01 1.429899999999999949e+00 9.054600000000000426e-01 3.141910000000000203e+00 2.649199999999999888e-01 1.671900000000000053e-01 1.984270000000000067e+01 4.287410000000000387e+00 2.587099999999999955e-01 6.275619999999999976e+00 3.552099999999999813e+00 1.532000000000000028e-02 3.393710000000000004e+00 8.943999999999999728e-01 2.154830000000000023e+00 1.193200000000000038e+01 2.052389999999999937e+00 1.230010000000000048e+00 5.606410000000000338e+00 1.237899999999999973e-01 1.471899999999999986e+00 1.367320000000000091e+00 1.573239999999999972e+00 2.190020000000000078e+00 7.739969999999999573e+00 3.133669999999999956e+00 1.614999999999999991e+00 1.286439999999999984e+01
2.407010000000000094e+00 3.852700000000000014e-01 1.010659999999999892e+00 1.438120000000000065e+00 1.243599999999999983e-01 1.917310000000000159e+01 3.827310000000000212e+00 1.765730000000000022e+00 7.813089999999999868e+00 6.356899999999999773e-01 4.342300000000000049e-01 3.473809999999999842e+00 3.794849999999999834e+00 1.067069999999999963e+00 1.866769999999999996e+01 3.180520000000000014e+00 7.511100000000000554e-01 5.440330000000000332e+00 2.749969999999999803e+00 1.626440000000000108e+00 3.325990000000000002e+00 2.700410000000000199e+00 6.783799999999999830e-01 1.246429999999999971e+01 9.013200000000000101e-01 1.755270000000000108e+00 5.890740000000000087e+00 1.647699999999999998e-01 1.590850000000000097e+00 8.820799999999999752e-01 4.111939999999999706e+00 2.488519999999999843e+00 1.077200000000000024e+01 4.623200000000000087e-01 2.389559999999999906e+00 1.353759999999999941e+01
3.180340000000000167e+00 1.359790000000000054e+00 2.031383999999999901e+01 4.190419999999999590e+00 1.167599999999999971e+00 1.762470000000000070e+01 2.530899999999999928e+00 2.276549999999999851e+00 9.673719999999999430e+00 2.370420000000000194e+00 1.850009999999999932e+00 3.840269999999999850e+00 2.053570000000000118e+00 2.039899999999999824e+00 1.767930000000000135e+01 2.845709999999999962e+00 8.615800000000000125e-01 6.903789999999999871e+00 1.850199999999999900e-01 1.714739999999999931e+00 5.506680000000000241e+00 2.261660000000000004e+00 8.166299999999999670e-01 1.181840000000000046e+01 7.174700000000000522e-01 2.179209999999999869e+00 7.819829999999999615e+00 1.009989999999999943e+00 3.342700000000000116e-01 1.979550000000000054e+01 6.957600000000000451e-01 1.007160000000000055e+00 9.865009999999999835e+00 3.445000000000000145e-02 1.958409999999999984e+00 1.231010000000000026e+01
6.483799999999999564e-01 1.123170000000000002e+00 1.595110000000000028e+01 3.391399999999999970e+00 1.744979999999999976e+00 1.791560000000000130e+01 9.562000000000000499e-01 1.301700000000000079e-01 1.812600000000000122e+01 3.160000000000000142e+00 1.603180000000000049e+00 4.589039999999999786e+00 3.956729999999999858e+00 1.416879999999999917e+00 7.116460000000000008e+00 1.547460000000000058e+00 1.141219999999999901e+00 1.189070000000000071e+01 2.874330000000000052e+00 1.066659999999999942e+00 2.297359999999999847e+00 1.283039999999999958e+00 6.304800000000000404e-01 4.388279999999999959e+00 3.287889999999999979e+00 2.108039999999999914e+00 1.029550000000000054e+01 3.879410000000000025e+00 2.265010000000000190e+00 1.280150000000000077e+01 1.038079999999999892e+00 4.098100000000000076e-01 8.923880000000000479e+00 1.451589999999999936e+00 2.031750000000000167e+00 6.538599999999999746e+00
6.154600000000000071e-01 1.358749999999999902e+00 1.592660000000000053e+01 3.420009999999999994e+00 1.257190000000000030e+00 1.785200000000000031e+01 1.050559999999999938e+00 1.635399999999999909e-01 1.838870000000000005e+01 3.596480000000000121e+00 1.798049999999999926e+00 4.541640000000000121e+00 3.808180000000000121e+00 1.497270000000000101e+00 7.224779999999999980e+00 1.225510000000000099e+00 1.212739999999999929e+00 1.177510000000000012e+01 2.484820000000000029e+00 9.558200000000000029e-01 2.157379999999999853e+00 1.296079999999999899e+00 7.178700000000000081e-01 4.501590000000000202e+00 3.595590000000000064e+00 1.770199999999999996e+00 1.027190000000000047e+01 3.715959999999999930e+00 2.559509999999999952e+00 1.265690000000000026e+01 1.022070000000000034e+00 5.688600000000000323e-01 8.838580000000000325e+00 1.643809999999999993e+00 1.811549999999999994e+00 6.698750000000000426e+00
3.217400000000000260e-01 1.033069999999999933e+00 1.568740000000000023e+01 3.371820000000000039e+00 2.539769999999999861e+00 1.801620000000000132e+01 9.749700000000000033e-01 2.603439999999999976e+00 1.800550000000000139e+01 3.178799999999999848e+00 1.696620000000000017e+00 5.038490000000000357e+00 3.725130000000000052e+00 8.604500000000000481e-01 7.305729999999999613e+00 2.113480000000000025e+00 8.772799999999999487e-01 1.229669999999999952e+01 3.702240000000000197e+00 1.253160000000000052e+00 2.480710000000000193e+00 3.110600000000000032e-01 2.596089999999999787e+00 3.774109999999999854e+00 3.026510000000000034e+00 1.715700000000000003e-01 1.009929999999999950e+01 4.414469999999999672e+00 1.675310000000000077e+00 1.269190000000000040e+01 7.462299999999999489e-01 8.319999999999999618e-02 9.005910000000000082e+00 1.588070000000000093e+00 2.813800000000000190e-01 6.432089999999999641e+00
3.032659999999999911e+00 2.421839999999999993e+00 4.453599999999999781e-01 4.069370000000000154e+00 2.057609999999999939e+00 1.814450000000000074e+01 3.493539999999999868e+00 1.775030000000000108e+00 8.909779999999999589e+00 3.923709999999999809e+00 1.458259999999999890e+00 4.238220000000000098e+00 1.918719999999999981e+00 1.135280000000000067e+00 1.803109999999999857e+01 3.960189999999999877e+00 1.335250000000000048e+00 6.545069999999999943e+00 1.851129999999999942e+00 6.703700000000000214e-01 5.242849999999999788e+00 3.195699999999999985e+00 5.425699999999999967e-01 1.186500000000000021e+01 1.963710000000000067e+00 2.314849999999999852e+00 7.386569999999999858e+00 1.001649999999999929e+00 9.171599999999999753e-01 2.013060000000000116e+01 1.527199999999999891e+00 9.992999999999999661e-01 9.985319999999999752e+00 8.374899999999999567e-01 1.938320000000000043e+00 1.187689999999999912e+01
5.101900000000000324e-01 2.159670000000000201e+00 4.328149999999999942e+00 1.904060000000000086e+00 3.666400000000000214e-01 6.778120000000000367e+00 1.659419999999999895e+00 1.190399999999999903e+00 1.191900000000000048e+01 1.072480000000000100e+00 1.640470000000000095e+00 9.401220000000000354e+00 3.163330000000000197e+00 6.529199999999999449e-01 8.979889999999999262e+00 3.169200000000000017e+00 5.223600000000000465e-01 1.383450000000000024e+01 3.158389999999999809e+00 1.870000000000000134e-02 5.173900000000000166e-01 9.074600000000000444e-01 1.592919999999999892e+00 1.442629999999999946e+01 7.591799999999999660e-01 7.344899999999999762e-01 2.263739999999999863e+00 4.040820000000000078e+00 2.369149999999999867e+00 1.125939999999999941e+01 2.573230000000000128e+00 1.520620000000000083e+00 5.028669999999999973e+00 2.903719999999999857e+00 1.981160000000000032e+00 2.950639999999999930e+00
2.253010000000000179e+00 2.230900000000000105e-01 5.717400000000000260e-01 2.428970000000000073e+00 1.564000000000000057e+00 1.888850000000000051e+01 3.911550000000000082e+00 1.038780000000000037e+00 1.051870000000000083e+01 1.545069999999999943e+00 8.478499999999999925e-01 3.397909999999999986e+00 1.004899999999999960e-01 2.750299999999999967e-01 1.971160000000000068e+01 4.280809999999999782e+00 8.143999999999999850e-02 6.302679999999999616e+00 3.791720000000000201e+00 2.456090000000000106e+00 3.105150000000000077e+00 9.632100000000000106e-01 2.350410000000000110e+00 1.213959999999999972e+01 1.949829999999999952e+00 1.042170000000000041e+00 5.664559999999999818e+00 3.733099999999999752e-01 1.658600000000000074e+00 1.403599999999999959e+00 1.647580000000000044e+00 1.835159999999999902e+00 7.875029999999999752e+00 3.128690000000000193e+00 1.684160000000000101e+00 1.287240000000000073e+01
2.083130000000000148e+00 1.323229999999999906e+00 9.317140000000000200e+00 1.917569999999999997e+00 2.750299999999999967e-01 6.807839999999999669e+00 2.117199999999999971e+00 5.445699999999999985e-01 2.387760000000000105e+00 4.112070000000000114e+00 2.149690000000000101e+00 1.712490000000000068e+00 1.057549999999999990e+00 2.598149999999999959e+00 2.006340000000000146e+01 2.164149999999999796e+00 1.693810000000000038e+00 4.359639999999999738e+00 2.206999999999999934e-02 2.535159999999999858e+00 8.343569999999999709e+00 4.513379999999999725e+00 1.281899999999999984e-01 3.788530000000000175e+00 2.232240000000000002e+00 9.729999999999999760e-02 1.147930000000000028e+01 3.137640000000000207e+00 2.249740000000000073e+00 7.044000000000000261e-02 4.165600000000000414e+00 1.386959999999999971e+00 6.225050000000000416e+00 4.437059999999999782e+00 6.895200000000000218e-01 1.057089999999999996e+01
2.995049999999999990e+00 2.485970000000000013e+00 4.306699999999999973e-01 4.121739999999999959e+00 1.993800000000000017e+00 1.812330000000000041e+01 3.752540000000000209e+00 1.892109999999999959e+00 8.970579999999999998e+00 3.988890000000000047e+00 1.343849999999999989e+00 4.000399999999999956e+00 1.903059999999999974e+00 1.368810000000000082e+00 1.772899999999999920e+01 3.981959999999999944e+00 1.074289999999999967e+00 6.584229999999999805e+00 1.676539999999999919e+00 9.462199999999999500e-01 5.275039999999999729e+00 3.170110000000000205e+00 5.444900000000000295e-01 1.163080000000000069e+01 1.414819999999999967e+00 2.426849999999999952e+00 7.618479999999999919e+00 9.913899999999999935e-01 5.869299999999999518e-01 2.006889999999999930e+01 1.772420000000000107e+00 1.063930000000000042e+00 9.973089999999999122e+00 1.006539999999999990e+00 1.838619999999999921e+00 1.239669999999999916e+01
3.145980000000000221e+00 1.861000000000000154e-02 1.544399999999999940e-01 4.209310000000000329e+00 1.512429999999999941e+00 1.748310000000000031e+01 3.600659999999999972e+00 2.227380000000000138e+00 1.031649999999999956e+01 4.244510000000000005e+00 1.013400000000000079e+00 4.705420000000000158e+00 2.174749999999999961e+00 6.625999999999999668e-01 1.815630000000000166e+01 3.185400000000000009e+00 1.159829999999999917e+00 6.784229999999999983e+00 1.790370000000000017e+00 5.471999999999999781e-02 4.039369999999999905e+00 3.421679999999999833e+00 1.188909999999999911e+00 1.305240000000000045e+01 9.858700000000000241e-01 2.347280000000000033e+00 6.588879999999999626e+00 9.260800000000000143e-01 1.591029999999999944e+00 2.026219999999999999e+01 1.474129999999999940e+00 1.084410000000000096e+00 9.225369999999999848e+00 1.616349999999999953e+00 2.196159999999999890e+00 1.203309999999999924e+01
9.546099999999999586e-01 7.916100000000000358e-01 1.676360000000000028e+01 1.267740000000000089e+00 4.842500000000000138e-01 9.061170000000000613e+00 6.906099999999999461e-01 1.877750000000000030e+00 1.180039999999999978e+01 2.988290000000000113e+00 1.495630000000000015e+00 7.559479999999999755e+00 8.092000000000000304e-01 2.179200000000000026e-01 7.036679999999999602e+00 3.208320000000000061e+00 1.103050000000000086e+00 1.529670000000000085e+00 1.182220000000000049e+00 1.791190000000000060e+00 2.751700000000000035e+00 7.001800000000000246e-01 1.516180000000000083e+00 1.448380000000000045e+01 2.675910000000000011e+00 2.783300000000000218e-01 1.286529999999999951e+01 3.301559999999999828e+00 2.024799999999999933e+00 1.842079999999999984e+01 1.185240000000000071e+00 7.592499999999999805e-01 1.960899999999999865e-01 2.623699999999999921e+00 2.409530000000000172e+00 1.531620000000000026e+01
3.103559999999999874e+00 6.700000000000000226e-03 3.032400000000000095e-01 4.268320000000000114e+00 1.469659999999999966e+00 1.744399999999999906e+01 3.591289999999999871e+00 2.207180000000000142e+00 1.032639999999999958e+01 4.243400000000000283e+00 1.013670000000000071e+00 4.581809999999999938e+00 2.073269999999999946e+00 5.706200000000000161e-01 1.814709999999999823e+01 3.193229999999999791e+00 1.260939999999999950e+00 6.880239999999999689e+00 1.645450000000000079e+00 2.895999999999999963e-02 4.114569999999999617e+00 3.457870000000000221e+00 1.217899999999999983e+00 1.303110000000000035e+01 8.918099999999999916e-01 2.274490000000000123e+00 6.422390000000000043e+00 1.013579999999999925e+00 1.686830000000000052e+00 2.022449999999999903e+01 1.613019999999999898e+00 1.114039999999999919e+00 9.174820000000000420e+00 1.680260000000000087e+00 2.205789999999999917e+00 1.215109999999999957e+01
2.299049999999999816e+00 1.797199999999999909e-01 6.090999999999999748e-01 2.535410000000000164e+00 1.471379999999999910e+00 1.906530000000000058e+01 4.003860000000000419e+00 1.031050000000000022e+00 1.044940000000000069e+01 1.465750000000000108e+00 8.659499999999999975e-01 3.268019999999999925e+00 1.739100000000000090e-01 2.039999999999999869e-01 1.986609999999999943e+01 4.329100000000000392e+00 1.724499999999999922e-01 6.300370000000000026e+00 3.709439999999999849e+00 2.493790000000000173e+00 3.206630000000000091e+00 9.053400000000000336e-01 2.238339999999999996e+00 1.202309999999999945e+01 1.966890000000000027e+00 1.129969999999999919e+00 5.654060000000000308e+00 2.516200000000000103e-01 1.598219999999999974e+00 1.346060000000000034e+00 1.596580000000000110e+00 2.011369999999999880e+00 7.779659999999999798e+00 3.137280000000000069e+00 1.660530000000000062e+00 1.288359999999999950e+01
6.168799999999999839e-01 1.936199999999999921e+00 1.681690000000000040e+01 3.446110000000000007e+00 2.437900000000000067e-01 1.777479999999999905e+01 1.316300000000000026e+00 2.483280000000000154e+00 1.875199999999999889e+01 3.984179999999999833e+00 2.371020000000000127e+00 4.687890000000000335e+00 3.872329999999999828e+00 1.640579999999999927e+00 7.735210000000000363e+00 1.220760000000000067e+00 1.583080000000000043e+00 1.138979999999999926e+01 1.330319999999999947e+00 7.683699999999999974e-01 2.027070000000000149e+00 2.057900000000000063e+00 7.122800000000000242e-01 4.419830000000000148e+00 3.461699999999999999e+00 1.215819999999999901e+00 9.803309999999999746e+00 3.098170000000000091e+00 4.247799999999999909e-01 1.189809999999999945e+01 1.590219999999999967e+00 3.431100000000000261e-01 8.983829999999999316e+00 1.479659999999999975e+00 1.949040000000000106e+00 6.545189999999999841e+00
4.369799999999999796e-01 9.897399999999999531e-01 1.578839999999999932e+01 3.263490000000000002e+00 2.436469999999999914e+00 1.801030000000000086e+01 1.043909999999999894e+00 2.545999999999999999e-02 1.797220000000000084e+01 3.214830000000000076e+00 1.695249999999999924e+00 4.942249999999999588e+00 3.755209999999999937e+00 9.752699999999999703e-01 7.216660000000000075e+00 2.069440000000000168e+00 9.154400000000000315e-01 1.215240000000000009e+01 3.607320000000000082e+00 1.187329999999999997e+00 2.511420000000000208e+00 3.706099999999999950e-01 1.243500000000000022e-01 3.852230000000000043e+00 2.947029999999999816e+00 9.576999999999999402e-02 1.018790000000000084e+01 4.286170000000000258e+00 1.760899999999999910e+00 1.274920000000000009e+01 8.837899999999999645e-01 1.417899999999999994e-01 9.046879999999999811e+00 1.595739999999999936e+00 1.006100000000000050e-01 6.404219999999999580e+00
3.176480000000000192e+00 1.241870000000000029e+00 8.590000000000000413e-03 4.082970000000000432e+00 1.197880000000000056e+00 1.766720000000000113e+01 2.621680000000000010e+00 2.373909999999999965e+00 9.769249999999999545e+00 2.447499999999999787e+00 1.942020000000000080e+00 3.889060000000000183e+00 2.074199999999999822e+00 2.115110000000000046e+00 1.753800000000000026e+01 2.811510000000000176e+00 8.103099999999999747e-01 6.763259999999999827e+00 2.685600000000000209e-01 1.589469999999999938e+00 5.456479999999999997e+00 2.200289999999999857e+00 7.862299999999999844e-01 1.180020000000000024e+01 7.316500000000000226e-01 2.154500000000000082e+00 7.845439999999999969e+00 1.061590000000000034e+00 3.890600000000000169e-01 1.982700000000000173e+01 6.644900000000000251e-01 1.049369999999999914e+00 9.888429999999999609e+00 4.267400000000000304e+00 1.916120000000000045e+00 1.234839999999999982e+01
3.077539999999999942e+00 2.461949999999999861e+00 4.134900000000000242e-01 4.117130000000000400e+00 2.023109999999999964e+00 1.816400000000000148e+01 3.924110000000000209e+00 1.976480000000000015e+00 9.016740000000000421e+00 3.998590000000000089e+00 1.306340000000000057e+00 3.910429999999999851e+00 1.923000000000000043e+00 1.424609999999999932e+00 1.759829999999999828e+01 3.917190000000000172e+00 9.466400000000000370e-01 6.587749999999999773e+00 1.628530000000000033e+00 1.073339999999999961e+00 5.273229999999999862e+00 3.214339999999999975e+00 5.217500000000000471e-01 1.156170000000000009e+01 1.214310000000000000e+00 2.473349999999999937e+00 7.761910000000000309e+00 8.923499999999999766e-01 4.788799999999999724e-01 1.999800000000000111e+01 1.770540000000000003e+00 1.085579999999999989e+00 9.906019999999999825e+00 1.097439999999999971e+00 1.793819999999999970e+00 1.260970000000000013e+01
3.227440000000000087e+00 4.605600000000000249e-01 6.398300000000000098e-01 4.188519999999999577e+00 1.478679999999999994e+00 1.786560000000000059e+01 3.817610000000000170e+00 2.291720000000000201e+00 1.055380000000000074e+01 3.963400000000000034e+00 1.099499999999999922e+00 4.416710000000000136e+00 2.240359999999999907e+00 2.820999999999999897e-02 1.810989999999999966e+01 3.039530000000000065e+00 1.466679999999999984e+00 7.089900000000000091e+00 1.340740000000000043e+00 2.318760000000000154e+00 3.893029999999999990e+00 3.903630000000000155e+00 1.044550000000000090e+00 1.250380000000000003e+01 7.704600000000000337e-01 2.343090000000000117e+00 6.390609999999999680e+00 7.891599999999999726e-01 1.499090000000000034e+00 2.004260000000000019e+01 1.740310000000000024e+00 1.006259999999999932e+00 9.367869999999999919e+00 1.753900000000000015e+00 1.966999999999999998e-02 1.192759999999999998e+01
1.830459999999999976e+00 2.008550000000000058e+00 1.537920000000000087e+01 9.271000000000000352e-01 3.255600000000000160e-01 1.173579999999999934e+01 4.143999999999999767e-02 6.687800000000000411e-01 1.466159999999999997e+01 8.616899999999999560e-01 1.863560000000000105e+00 9.694480000000000430e+00 1.818000000000000171e-02 1.156009999999999982e+00 7.724140000000000228e+00 2.634360000000000035e+00 1.203349999999999920e+00 6.456000000000000627e-02 3.437699999999999978e+00 1.812429999999999986e+00 2.097620000000000040e+00 2.952210000000000001e+00 1.419899999999999940e+00 1.279100000000000037e+01 2.005090000000000039e+00 7.027999999999999525e-02 7.559339999999999726e+00 1.074400000000000022e+00 6.227500000000000258e-01 1.578070000000000084e+00 3.921819999999999862e+00 1.288869999999999960e+00 1.712839999999999918e+01 1.883099999999999996e+00 2.309450000000000003e+00 1.737079999999999913e+01
3.272959999999999869e+00 1.102190000000000003e+00 2.923999999999999863e-02 4.086330000000000240e+00 1.153569999999999984e+00 1.785589999999999833e+01 2.998829999999999885e+00 2.457079999999999931e+00 9.736990000000000478e+00 2.615850000000000009e+00 2.139740000000000197e+00 4.161730000000000373e+00 1.898649999999999949e+00 2.372050000000000214e+00 1.733099999999999952e+01 2.686970000000000081e+00 6.722500000000000142e-01 6.486769999999999925e+00 5.120099999999999651e-01 1.350049999999999972e+00 5.291529999999999845e+00 1.980029999999999957e+00 7.501700000000000035e-01 1.193249999999999922e+01 7.326899999999999524e-01 2.153490000000000126e+00 7.771399999999999864e+00 1.123429999999999929e+00 4.025299999999999989e-01 1.979560000000000031e+01 4.134900000000000242e-01 1.132050000000000001e+00 1.007469999999999999e+01 4.087089999999999890e+00 1.880670000000000064e+00 1.233389999999999986e+01
3.178690000000000015e+00 5.449500000000000455e-01 6.141199999999999992e-01 4.256429999999999936e+00 1.427359999999999962e+00 1.798260000000000147e+01 3.881650000000000045e+00 2.327949999999999964e+00 1.042409999999999926e+01 3.934019999999999850e+00 1.030829999999999913e+00 4.533909999999999663e+00 2.213569999999999816e+00 3.193000000000000005e-02 1.813129999999999953e+01 3.029860000000000220e+00 1.450700000000000101e+00 7.029279999999999973e+00 1.306939999999999991e+00 2.360339999999999883e+00 3.777660000000000018e+00 3.826569999999999805e+00 1.045639999999999903e+00 1.251329999999999920e+01 7.718800000000000106e-01 2.440850000000000186e+00 6.438640000000000363e+00 7.883299999999999752e-01 1.417249999999999899e+00 2.007819999999999894e+01 1.669880000000000031e+00 9.499199999999999866e-01 9.517910000000000537e+00 1.917259999999999964e+00 2.905999999999999903e-02 1.176019999999999932e+01
5.374499999999999833e-01 9.595700000000000340e-01 1.590399999999999991e+01 3.198240000000000194e+00 2.314290000000000180e+00 1.799510000000000076e+01 1.080440000000000067e+00 6.428999999999999992e-02 1.792460000000000164e+01 3.204730000000000079e+00 1.667159999999999975e+00 4.854390000000000427e+00 3.806589999999999918e+00 1.099189999999999889e+00 7.155999999999999694e+00 1.995579999999999909e+00 9.591199999999999726e-01 1.203320000000000078e+01 3.431929999999999925e+00 1.160179999999999989e+00 2.462190000000000101e+00 5.760100000000000220e-01 2.493900000000000006e-01 4.000880000000000436e+00 2.927779999999999827e+00 2.602860000000000174e+00 1.025380000000000003e+01 4.166850000000000165e+00 1.867799999999999905e+00 1.279819999999999958e+01 9.861799999999999455e-01 1.975800000000000056e-01 9.060629999999999740e+00 1.562720000000000109e+00 2.529929999999999790e+00 6.391009999999999636e+00
3.076999999999999957e+00 1.751509999999999900e+00 2.004360000000000142e+01 3.049999999999999933e-02 8.770400000000000418e-01 1.760679999999999978e+01 2.828770000000000007e+00 1.959389999999999965e+00 9.210610000000000852e+00 2.151180000000000092e+00 1.568149999999999933e+00 4.013580000000000148e+00 2.184159999999999879e+00 1.961340000000000083e+00 1.806360000000000099e+01 2.857639999999999958e+00 9.502500000000000391e-01 7.331649999999999778e+00 4.373470000000000191e+00 2.122840000000000060e+00 5.358229999999999826e+00 2.504309999999999814e+00 8.919099999999999806e-01 1.189179999999999993e+01 6.524900000000000144e-01 2.305509999999999948e+00 7.696500000000000341e+00 7.840200000000000502e-01 1.836200000000000054e-01 1.979570000000000007e+01 2.275800000000000045e-01 8.296900000000000386e-01 1.007920000000000016e+01 4.045900000000000052e-01 2.164590000000000014e+00 1.205979999999999919e+01
3.228310000000000013e+00 3.603199999999999736e-01 6.493900000000000228e-01 4.200090000000000323e+00 1.497109999999999941e+00 1.773580000000000112e+01 3.770980000000000221e+00 2.252709999999999990e+00 1.058440000000000047e+01 3.840399999999999814e+00 1.159329999999999972e+00 4.353460000000000107e+00 2.173200000000000021e+00 6.069999999999999701e-02 1.812440000000000140e+01 3.021729999999999805e+00 1.460520000000000040e+00 7.156509999999999927e+00 1.526559999999999917e+00 2.285169999999999924e+00 3.979379999999999917e+00 3.991179999999999950e+00 1.061930000000000041e+00 1.255889999999999951e+01 7.954299999999999704e-01 2.272079999999999878e+00 6.346309999999999896e+00 8.503199999999999648e-01 1.592600000000000016e+00 2.001960000000000051e+01 1.806669999999999998e+00 1.063020000000000076e+00 9.222699999999999676e+00 1.570200000000000040e+00 2.500370000000000203e+00 1.207039999999999935e+01
2.037319999999999798e+00 1.699100000000000055e+00 4.119710000000000427e+00 3.154279999999999973e+00 2.364149999999999974e+00 5.957729999999999748e+00 3.113410000000000011e+00 5.222200000000000175e-01 1.749479999999999924e+00 5.190000000000000169e-02 2.268180000000000085e+00 1.059159999999999968e+01 1.870500000000000052e+00 2.188639999999999919e+00 8.031579999999999941e+00 1.142190000000000039e+00 1.398849999999999927e+00 2.042829999999999924e+00 1.086980000000000057e+00 1.118039999999999923e+00 5.971350000000000158e+00 4.092489999999999739e+00 4.164700000000000069e-01 3.827659999999999840e+00 2.151110000000000078e+00 8.290100000000000247e-01 1.013349999999999973e+01 5.169300000000000006e-01 2.191539999999999822e+00 3.685300000000000242e-01 4.056189999999999962e+00 6.152900000000000036e-01 8.184680000000000177e+00 2.516989999999999839e+00 1.595879999999999965e+00 1.211059999999999981e+01
3.845999999999999974e-01 2.603019999999999889e+00 1.532230000000000025e+01 2.453930000000000167e+00 1.783849999999999936e+00 1.623049999999999926e+01 4.929200000000000248e-01 2.287859999999999783e+00 1.063889999999999958e+01 1.615600000000000092e-01 1.237370000000000081e+00 8.136359999999999815e+00 1.995679999999999898e+00 2.103559999999999874e+00 2.811980000000000146e+00 3.695040000000000102e+00 1.709119999999999973e+00 4.730940000000000367e+00 2.528230000000000199e+00 2.003439999999999888e+00 9.286910000000000664e+00 3.911200000000000232e-01 8.223599999999999799e-01 1.280410000000000004e+01 2.706789999999999807e+00 1.372560000000000002e+00 1.159329999999999927e+01 4.024160000000000181e+00 8.508099999999999552e-01 2.892199999999999882e+00 1.287560000000000038e+00 6.018400000000000416e-01 4.834600000000000009e+00 2.795420000000000016e+00 9.070500000000000229e-01 1.405189999999999984e+01
3.218449999999999811e+00 1.154789999999999983e+00 2.861000000000000001e-02 4.058040000000000092e+00 1.186800000000000077e+00 1.774540000000000006e+01 2.825820000000000221e+00 2.432479999999999976e+00 9.783699999999999619e+00 2.528300000000000214e+00 2.037129999999999885e+00 3.995740000000000069e+00 2.013920000000000154e+00 2.230929999999999858e+00 1.742150000000000176e+01 2.754410000000000025e+00 7.453300000000000480e-01 6.629129999999999967e+00 3.815100000000000158e-01 1.470660000000000078e+00 5.377989999999999604e+00 2.109579999999999789e+00 7.670200000000000351e-01 1.184629999999999939e+01 7.366200000000000525e-01 2.147539999999999782e+00 7.821609999999999729e+00 1.098470000000000057e+00 4.142199999999999771e-01 1.982849999999999824e+01 5.224100000000000410e-01 1.089930000000000065e+00 9.968149999999999622e+00 4.160809999999999675e+00 1.889029999999999987e+00 1.235469999999999935e+01
2.274270000000000014e+00 2.935300000000000131e-01 5.900699999999999834e-01 2.305919999999999970e+00 1.644630000000000036e+00 1.868449999999999989e+01 3.806379999999999875e+00 1.044669999999999987e+00 1.058300000000000018e+01 1.651329999999999965e+00 8.482699999999999685e-01 3.492469999999999963e+00 4.218000000000000221e-02 3.638100000000000223e-01 1.948420000000000130e+01 4.176910000000000345e+00 2.485780000000000101e+00 6.305019999999999847e+00 3.765499999999999847e+00 2.440620000000000012e+00 3.135549999999999837e+00 1.028829999999999911e+00 2.487070000000000114e+00 1.225319999999999965e+01 1.992850000000000010e+00 9.695399999999999574e-01 5.686180000000000234e+00 4.961999999999999744e-01 1.636910000000000087e+00 1.405469999999999997e+00 1.707249999999999934e+00 1.666700000000000070e+00 7.993649999999999700e+00 3.126619999999999955e+00 1.684339999999999948e+00 1.283810000000000073e+01
3.035099999999999909e+00 1.817569999999999908e+00 2.003610000000000113e+01 4.378720000000000390e+00 7.498299999999999965e-01 1.760780000000000101e+01 2.819640000000000146e+00 1.934879999999999933e+00 9.186410000000000409e+00 2.082809999999999828e+00 1.463119999999999976e+00 4.174220000000000041e+00 2.302029999999999799e+00 1.959130000000000038e+00 1.802080000000000126e+01 2.855700000000000127e+00 9.322300000000000031e-01 7.277300000000000324e+00 4.295980000000000132e+00 2.266640000000000210e+00 5.237689999999999735e+00 2.638850000000000140e+00 9.128199999999999648e-01 1.184999999999999964e+01 6.527300000000000324e-01 2.339869999999999894e+00 7.714920000000000222e+00 7.280600000000000405e-01 2.036900000000000099e-01 1.988040000000000163e+01 1.678699999999999914e-01 7.566500000000000448e-01 1.013599999999999923e+01 4.849499999999999922e-01 2.229410000000000114e+00 1.202950000000000053e+01