-1.767610000000000015e-01 5.339100000000000096e-02 5.840269999999999628e-01 -4.172029999999999905e-01 -5.256600000000000161e-02 1.112130000000000063e-01 5.532340000000000035e-01 -1.601999999999999908e-03 -4.227009999999999934e-01 1.427108000000000043e+00 8.394270000000000342e-01 2.296880000000000033e-01 -7.508879999999999999e-01 -3.843070000000000097e-01 4.483019999999999783e-01 1.121879999999999961e-01 -1.014240000000000003e-01 -2.862120000000000219e-01 -1.000999999999999945e-01 -8.606800000000000561e-02 2.846699999999999925e-02 -1.415736000000000105e+00 -8.052540000000000253e-01 -3.006750000000000256e-01 1.127099999999999977e-02 -6.612300000000000122e-02 -8.112199999999999966e-02 1.642499999999999863e-02 1.348969999999999891e-01 -4.168930000000000136e-01 -3.121399999999999869e-02 -5.065000000000000058e-03 2.082529999999999937e-01 7.716739999999999711e-01 4.746940000000000048e-01 -1.023479999999999945e-01
2.276946999999999832e+00 9.732100000000000195e-01 4.762099999999999667e-02 -7.742769999999999930e-01 -2.182669999999999888e-01 -7.656250000000000000e-01 -1.532469999999999943e-01 1.005970000000000031e+00 -3.741719999999999935e+00 -3.494289999999999896e-01 -2.372160000000000102e-01 2.853299999999999934e-02 -1.011100000000000020e-02 1.612200000000000091e-02 5.401740000000000430e-01 6.631650000000000045e-01 2.717599999999999877e-02 3.118340000000000001e-01 2.623308999999999891e+00 -2.914050000000000251e-01 -1.987452999999999914e+00 -6.460829999999999629e-01 1.312210000000000043e-01 6.636799999999999644e-02 -2.798369000000000106e+00 4.574550000000000005e-01 1.070688000000000084e+00 -1.404738000000000042e+00 -6.767630000000000035e-01 9.197229999999999572e-01 -6.064499999999999752e-02 -4.781200000000000033e-02 5.316189999999999527e-01 6.334779999999999855e-01 -1.139691999999999927e+00 2.978235999999999883e+00
-3.537170000000000036e-01 -6.628100000000000658e-02 1.510736999999999997e+00 -5.001250000000000417e-01 1.805930000000000035e-01 -9.877070000000000016e-01 -5.862960000000000393e-01 -2.933629999999999849e-01 -7.494530000000000358e-01 2.189850000000000130e-01 2.731299999999999839e-01 7.256519999999999637e-01 6.839490000000000292e-01 1.201220000000000065e-01 -2.360167999999999822e+00 -1.018086000000000046e+00 2.642100000000000004e-02 -6.015989999999999949e-01 2.031449999999999922e-01 -5.172090000000000298e-01 7.137719999999999620e-01 1.000763999999999987e+00 6.504309999999999814e-01 7.298550000000000315e-01 5.178380000000000205e-01 1.616380000000000039e-01 -5.825150000000000050e-01 -4.036230000000000095e-01 -6.239399999999999807e-02 1.310119999999999951e+00 5.215410000000000323e-01 -1.143750000000000044e-01 8.922179999999999556e-01 -2.843749999999999889e-01 -3.587139999999999773e-01 -6.009109999999999729e-01
-1.946060000000000012e-01 3.344999999999999883e-03 4.831429999999999891e-01 8.391579999999999595e-01 -6.364079999999999737e-01 -1.242799999999999981e-02 -1.849520000000000053e-01 4.568400000000000238e-02 1.864510000000000056e-01 -3.724750000000000005e-01 -1.217799999999999994e-01 -1.001839999999999953e-01 -1.086708999999999925e+00 5.764139999999999819e-01 4.233299999999999841e-01 -3.631190000000000251e-01 -8.479090000000000238e-01 7.862099999999999644e-01 2.974260000000000237e-01 5.016180000000000083e-01 -8.610160000000000036e-01 -4.939790000000000014e-01 6.395260000000000389e-01 6.191560000000000397e-01 7.826220000000000399e-01 3.974570000000000047e-01 -3.590400000000000258e-01 3.620120000000000005e-01 6.409800000000000220e-02 1.883229999999999904e-01 2.789380000000000193e-01 -3.634049999999999780e-01 -4.216809999999999725e-01 1.356829999999999981e-01 -2.586390000000000078e-01 -9.322629999999999528e-01
2.682000000000000009e-02 3.591989999999999905e-01 -4.022040000000000060e-01 3.596530000000000005e-01 -6.698699999999999655e-01 4.005329999999999724e-01 2.966568000000000094e+00 -2.911489999999999911e-01 -9.817799999999999860e-01 1.783900000000000069e-02 2.127899999999999930e-02 7.977579999999999671e-01 -2.435990000000000100e-01 5.913720000000000088e-01 2.550080000000000124e-01 -3.669930000000000136e-01 -2.360309999999999908e-01 2.792069999999999830e-01 4.200309999999999877e-01 1.209400000000000058e-01 -7.662050000000000249e-01 -3.600400000000000128e-02 -9.875999999999999363e-03 5.342099999999999627e-01 -1.793480000000000074e-01 2.489379999999999926e-01 -6.615330000000000377e-01 -1.588080000000000047e-01 -2.812990000000000212e-01 -9.251199999999999701e-02 -2.969114999999999949e+00 -1.018379999999999980e-01 1.198182000000000080e+00 1.629549999999999887e-01 2.483350000000000002e-01 -5.606619999999999937e-01
-2.649310000000000276e-01 2.248060000000000058e-01 1.781220000000000026e-01 -6.607250000000000068e-01 -4.504690000000000083e-01 -1.554299999999999952e-02 8.245160000000000267e-01 2.263270000000000004e-01 -1.016399999999999942e-02 2.699270999999999976e+00 1.309256999999999893e+00 7.025529999999999831e-01 -1.415961000000000025e+00 -6.168280000000000429e-01 5.708879999999999511e-01 1.861000000000000024e-03 -2.245280000000000054e-01 -1.705740000000000034e-01 -1.357019999999999893e-01 -1.855320000000000025e-01 -2.716120000000000201e-01 -2.542251999999999956e+00 -1.013649999999999940e+00 -5.371629999999999461e-01 -1.847000000000000031e-02 1.930600000000000024e-02 -1.070649999999999935e-01 1.004759999999999959e-01 1.277510000000000034e-01 -4.281229999999999758e-01 -2.233100000000000016e-02 8.695600000000000551e-02 7.503899999999999459e-02 1.434247999999999967e+00 4.966050000000000186e-01 1.364300000000000061e-02
-1.192600000000000049e-01 2.861999999999999961e-02 7.165989999999999860e-01 -2.366060000000000108e-01 2.033560000000000090e-01 1.584460000000000035e-01 4.166500000000000203e-01 -2.393029999999999879e-01 -4.149550000000000183e-01 -3.231939999999999813e-01 3.390270000000000228e-01 4.212300000000000072e-02 8.956969999999999654e-01 -2.928450000000000220e-01 5.044640000000000235e-01 2.619929999999999759e-01 -2.324999999999999810e-03 -3.082360000000000100e-01 -6.532000000000000306e-02 1.833999999999999910e-03 1.415980000000000016e-01 1.889939999999999953e-01 -4.550100000000000255e-01 -2.562590000000000146e-01 3.142799999999999760e-02 -6.380199999999999760e-02 -6.127799999999999914e-02 -1.328830000000000011e-01 9.903700000000000003e-02 -4.459259999999999891e-01 -3.448500000000000176e-02 -1.886440000000000061e-01 3.080160000000000120e-01 -8.830120000000000191e-01 5.700539999999999496e-01 -3.845930000000000182e-01
-1.137340000000000018e-01 7.044400000000000661e-02 4.137500000000000067e-01 -1.529207999999999901e+00 -1.452229999999999910e-01 -1.556539999999999868e-01 1.615774999999999961e+00 6.924900000000000500e-02 -4.593999999999999750e-01 -4.696830000000000171e-01 -4.396729999999999805e-01 6.894100000000000228e-02 2.971809999999999730e-01 3.561000000000000276e-01 4.127419999999999978e-01 5.818799999999999667e-02 -3.486429999999999807e-01 -1.607719999999999982e-01 -2.026632999999999907e+00 2.190729999999999900e-01 -2.254811999999999816e+00 2.886878999999999973e+00 2.500800000000000245e-01 2.069377999999999940e+00 1.509790000000000021e-01 -1.166640000000000038e-01 4.467100000000000237e-02 -1.448170000000000013e-01 5.145149999999999446e-01 5.521399999999999919e-02 2.167250000000000010e-01 -2.789170000000000260e-01 -1.187430000000000013e-01 -9.416510000000000158e-01 -1.503410000000000024e-01 8.468599999999999739e-02
4.874229999999999952e-01 -3.580969999999999986e-01 -3.596779999999999977e-01 2.172870000000000079e-01 6.927269999999999817e-01 4.437490000000000046e-01 1.634919000000000011e+00 1.500600000000000024e-02 1.126751999999999976e+00 2.835300000000000042e-01 3.957869999999999999e-01 -5.564890000000000114e-01 2.118659999999999988e-01 -5.197739999999999583e-01 -5.069219999999999837e-01 8.994630000000000125e-01 -3.931620000000000115e-01 2.525350000000000095e-01 -5.205699999999999772e-01 -3.343600000000000044e-02 -7.309050000000000269e-01 -1.055733000000000033e+00 3.145549999999999735e-01 -4.399040000000000172e-01 -1.800143999999999966e+00 3.612369999999999748e-01 4.202339999999999964e-01 -8.984680000000000444e-01 1.858420000000000072e-01 6.206599999999999895e-01 -9.254099999999999826e-02 -8.810890000000000111e-01 -1.348578999999999972e+00 6.329669999999999463e-01 2.204059999999999908e-01 1.078545000000000087e+00
1.053600000000000023e-02 4.703720000000000123e-01 1.077086999999999906e+00 -1.004858000000000029e+00 -3.666969999999999952e-01 2.430121000000000198e+00 1.268901999999999974e+00 -8.786199999999999566e-02 3.798610000000000042e-01 7.283499999999999697e-02 3.038250000000000117e-01 -4.394950000000000245e-01 2.436369999999999925e-01 -3.341939999999999911e-01 -1.574280000000000124e-01 -6.007609999999999895e-01 -1.561990000000000045e-01 -9.701039999999999663e-01 3.124000000000000041e-03 -1.634099999999999997e-01 4.135969999999999924e-01 6.944160000000000332e-01 3.114049999999999874e-01 3.989449999999999941e-01 1.943940000000000112e-01 3.937620000000000009e-01 -1.371947999999999945e+00 -1.664633999999999947e+00 2.360559999999999881e-01 1.637810000000000099e-01 1.120978000000000030e+00 -9.862349999999999728e-01 5.467720000000000358e-01 -3.385699999999999821e-01 3.791769999999999863e-01 -2.471189999999999998e+00
1.043211000000000110e+00 4.600270000000000192e-01 8.505059999999999842e-01 -2.442680000000000129e-01 -1.907800000000000051e-01 -4.377019999999999800e-01 -1.520269999999999955e-01 -2.925200000000000022e-02 -5.098099999999999854e-02 5.483829999999999538e-01 3.020660000000000012e-01 -5.592920000000000114e-01 2.268020000000000036e-01 2.688229999999999786e-01 -1.103777999999999926e+00 -9.180930000000000479e-01 -2.587729999999999753e-01 5.856200000000000294e-02 -2.022301999999999822e+00 4.429750000000000076e-01 2.484234999999999971e+00 1.532090000000000118e-01 4.541040000000000076e-01 -8.142399999999999638e-02 1.053366999999999942e+00 2.780449999999999866e-01 1.939819999999999878e-01 1.846359999999999946e-01 -1.414708000000000077e+00 -1.294421999999999962e+00 9.671399999999999442e-02 1.179570000000000063e-01 3.993880000000000208e-01 3.037000000000000116e-02 -4.304830000000000045e-01 -4.590759999999999841e-01
2.916880000000000028e-01 1.325900000000000134e-01 -2.468930000000000013e-01 2.818240000000000189e-01 -9.524499999999999633e-02 -1.387770000000000115e-01 -8.024670000000000414e-01 1.063069999999999987e-01 -1.117822000000000093e+00 4.342508999999999730e+00 -1.471397000000000066e+00 4.107891000000000403e+00 -8.486089999999999467e-01 3.165499999999999980e-01 4.436289999999999956e-01 2.176980000000000026e-01 1.239340000000000025e-01 1.611917000000000044e+00 -4.359739999999999727e-01 -1.837249999999999994e-01 -1.309889999999999943e-01 4.665099999999999802e-02 8.095160000000000133e-01 1.851544000000000079e+00 -1.511099999999999943e-01 -3.433700000000000085e-01 -3.629749999999999921e-01 -2.966518000000000210e+00 7.528600000000000569e-02 -5.715594000000000285e+00 -1.421000000000000041e-02 2.233000000000000176e-03 -6.144370000000000109e-01 3.851799999999999669e-02 5.273200000000000109e-01 3.125060000000000060e-01
1.069665000000000088e+00 -6.704290000000000527e-01 3.727899999999999964e-02 -4.774720000000000075e-01 7.381830000000000336e-01 5.240160000000000373e-01 2.989539999999999975e-01 3.307990000000000097e-01 1.425099999999999978e-02 -3.310799999999999854e-01 2.033109999999999917e-01 3.672830000000000261e-01 3.921229999999999993e-01 -7.557460000000000289e-01 2.201809999999999878e-01 -1.195394999999999985e+00 4.077499999999999875e-02 -3.821289999999999965e-01 5.930520000000000236e-01 -1.202290000000000025e-01 -6.096000000000000030e-02 1.077844999999999942e+00 -4.027549999999999741e-01 8.269290000000000251e-01 1.125723000000000029e+00 -1.464529999999999998e-01 4.360180000000000167e-01 -9.492319999999999647e-01 6.886529999999999596e-01 -5.200059999999999683e-01 -1.547806999999999933e+00 8.291099999999999859e-02 -7.499940000000000495e-01 -5.637600000000000250e-02 1.098000000000000018e-02 -7.128679999999999461e-01
-4.964629999999999876e-01 5.550620000000000553e-01 -2.715640000000000276e-01 7.613739999999999952e-01 5.721249999999999947e-01 3.591369999999999840e-01 1.616150000000000087e-01 8.466400000000000314e-02 1.539089999999999903e-01 -1.203535999999999939e+00 6.327409999999999979e-01 -4.835740000000000038e-01 -7.698329999999999895e-01 -5.888889999999999958e-01 4.224220000000000197e-01 -6.024509999999999588e-01 -6.579699999999999438e-02 8.184630000000000516e-01 1.424914999999999932e+00 -6.179320000000000368e-01 3.769399999999999834e-02 8.952620000000000022e-01 -4.043579999999999952e-01 -4.885079999999999978e-01 3.518959999999999866e-01 5.071400000000000213e-02 5.287150000000000460e-01 4.975089999999999790e-01 -5.377659999999999663e-01 -3.898849999999999816e-01 -2.928100000000000147e-02 -7.402300000000000546e-02 2.245099999999999874e-02 -9.910090000000000288e-01 3.934599999999999764e-01 -7.092600000000000016e-01
-5.689459999999999518e-01 1.011319999999999997e-01 8.519250000000000433e-01 3.671690000000000231e-01 3.296520000000000006e-01 2.978816999999999826e+00 -2.745250000000000190e-01 -3.117880000000000096e-01 -1.772309999999999997e-01 -2.380000000000000171e-02 3.524999999999999661e-02 1.158310000000000034e-01 -4.558079999999999909e-01 -3.509010000000000185e-01 -2.393165000000000209e+00 4.858080000000000176e-01 -3.807929999999999926e-01 6.612540000000000084e-01 -2.409010000000000040e-01 2.854590000000000183e-01 -6.978189999999999671e-01 -1.186077999999999966e+00 -3.303479999999999750e-01 -1.146846000000000032e+00 4.673849999999999949e-01 4.217670000000000030e-01 5.926399999999999724e-02 2.187820000000000042e-01 2.056439999999999935e-01 -8.701510000000000078e-01 -4.771440000000000126e-01 -1.255179999999999907e-01 1.629529999999999867e-01 1.688056000000000001e+00 1.204429999999999945e-01 4.551689999999999903e-01
4.018059999999999965e-01 6.544489999999999474e-01 -2.460970000000000102e-01 -3.787999999999999701e-02 4.183589999999999809e-01 4.931599999999999873e-01 2.571350000000000025e-01 1.286819999999999908e-01 1.759870000000000045e-01 -3.631054999999999922e+00 1.212912999999999908e+00 2.699779999999999958e-01 1.061760000000000065e-01 -4.641759999999999775e-01 2.608880000000000088e-01 -8.883330000000000393e-01 -3.918300000000000116e-01 4.246619999999999839e-01 3.545990000000000197e+00 -1.176690999999999931e+00 -8.417289999999999495e-01 1.530918999999999919e+00 -6.373919999999999586e-01 -2.037279999999999924e-01 9.647440000000000460e-01 3.683489999999999820e-01 1.034767999999999910e+00 -4.794749999999999845e-01 -6.082509999999999861e-01 -3.711130000000000262e-01 -1.734660000000000091e-01 -1.257300000000000084e-01 -7.771300000000000430e-02 -1.596562000000000037e+00 6.213170000000000082e-01 -9.190610000000000168e-01
4.035150000000000126e-01 3.037509999999999932e-01 2.189265999999999934e+00 -2.734579999999999789e-01 -1.305870000000000086e-01 -1.471592999999999929e+00 -4.655409999999999826e-01 -1.418810000000000071e-01 -4.653869999999999951e-01 8.337240000000000206e-01 3.756630000000000247e-01 1.114959999999999979e-01 1.982150000000000023e-01 6.628340000000000343e-01 -3.246684999999999821e+00 -1.565380999999999911e+00 -1.040279999999999955e-01 -3.545289999999999830e-01 -1.279751000000000083e+00 -2.017829999999999901e-01 1.363987999999999978e+00 8.497590000000000421e-01 5.269019999999999815e-01 4.265240000000000142e-01 1.220663000000000054e+00 2.136429999999999996e-01 -6.736820000000000030e-01 -7.033000000000000362e-02 -1.106173999999999991e+00 1.637850000000000028e+00 4.433900000000000063e-01 -9.645000000000000795e-03 1.025368999999999975e+00 -2.948040000000000105e-01 -3.886950000000000127e-01 -5.426180000000000447e-01
8.715699999999999559e-01 -1.630902999999999992e+00 -2.314280000000000115e+00 -1.201376999999999917e+00 1.098319000000000045e+00 5.728159999999999918e-01 2.909720000000000084e-01 7.570999999999999952e-02 1.622929000000000066e+00 2.129347000000000101e+00 -9.233719999999999706e-01 5.603820000000000467e-01 2.192669999999999897e-01 4.309060000000000112e-01 -1.939235000000000042e+00 -1.494993999999999934e+00 4.241329999999999822e-01 -7.066599999999999548e-01 -8.290000000000000493e-03 4.755510000000000015e-01 6.065110000000000223e-01 -2.059899000000000147e+00 8.480299999999999505e-01 -1.810209999999999875e-01 1.307865000000000055e+00 6.413769999999999749e-01 1.841885999999999912e+00 1.311576000000000075e+00 -9.176459999999999617e-01 8.301800000000000290e-01 -1.550226000000000104e+00 -6.016010000000000524e-01 -8.926690000000000458e-01 1.841889999999999916e-01 7.949599999999999722e-02 -8.390000000000000105e-04
-2.261920000000000042e-01 1.835859999999999992e-01 2.234669999999999990e-01 7.830700000000000438e-01 -3.757770000000000277e-01 -1.293860000000000010e-01 -6.132039999999999713e-01 1.879979999999999984e-01 -2.619340000000000002e-01 -8.108060000000000267e-01 -4.819459999999999855e-01 1.742420000000000080e-01 3.653970000000000273e-01 1.705540000000000112e-01 5.465839999999999588e-01 -5.392059999999999631e-01 3.239199999999999718e-02 4.621179999999999732e-01 -1.388492000000000060e+00 7.670690000000000008e-01 -1.490196999999999994e+00 2.494969000000000214e+00 -3.498140000000000138e-01 1.164406999999999970e+00 9.789719999999999533e-01 -4.564810000000000256e-01 -3.656739999999999990e-01 2.154439999999999966e-01 3.989630000000000121e-01 -5.973799999999999943e-02 -5.863519999999999843e-01 -5.803699999999999831e-02 -5.164149999999999574e-01 -6.735999999999999766e-01 -1.850800000000000015e-02 2.525270000000000015e-01
1.791510000000000047e-01 5.824810000000000265e-01 -2.894700000000000051e-01 1.474239999999999995e+00 -7.773510000000000142e-01 5.009700000000000264e-01 1.929094000000000086e+00 -7.001030000000000308e-01 -1.454445999999999906e+00 3.379200000000000259e-02 6.701699999999999324e-02 8.724819999999999798e-01 -1.420563000000000020e+00 7.513450000000000406e-01 3.586230000000000251e-01 -3.829899999999999971e-01 -2.270280000000000076e-01 1.174110000000000015e-01 4.958080000000000265e-01 9.725300000000000611e-02 -4.415930000000000133e-01 -4.786770000000000191e-01 1.979470000000000118e-01 1.222391999999999923e+00 -1.568759999999999877e-01 3.380730000000000124e-01 -9.035210000000000186e-01 -2.462139999999999884e-01 -5.566229999999999789e-01 -4.083749999999999880e-01 -1.917078999999999978e+00 -4.910799999999999887e-02 9.814699999999999536e-01 4.903140000000000276e-01 2.760980000000000101e-01 -5.559420000000000472e-01
-1.688129999999999908e-01 -5.196800000000000308e-01 -7.931000000000000549e-03 -4.884569999999999745e-01 3.802519999999999789e-01 6.720500000000000085e-02 -1.999905000000000044e+00 -3.365489999999999871e-01 1.421273999999999926e+00 -4.033240000000000158e-01 1.250789999999999957e-01 4.331280000000000130e-01 7.273699999999999610e-02 -6.593940000000000357e-01 3.048589999999999911e-01 -1.465476999999999919e+00 3.457390000000000185e-01 -7.888290000000000024e-01 5.796769999999999978e-01 -2.272100000000000161e-02 1.669819999999999915e-01 8.953989999999999450e-01 -3.786419999999999786e-01 7.471419999999999728e-01 3.167447000000000124e+00 4.867900000000000005e-02 -1.125388000000000055e+00 6.275579999999999492e-01 7.996339999999999559e-01 -7.739600000000000646e-02 -7.638719999999999954e-01 2.188789999999999902e-01 -2.107749999999999901e-01 -5.297000000000000319e-02 -1.273999999999999959e-03 -9.302719999999999878e-01
-7.140699999999999825e-01 -3.054540000000000033e-01 -1.451189999999999980e-01 1.377213999999999938e+00 -5.898740000000000094e-01 -2.328270000000000062e-01 2.521269999999999900e-01 -6.110700000000000159e-02 -1.651556000000000024e+00 -2.846512000000000153e+00 -1.861119999999999997e-01 8.931050000000000377e-01 -1.636633999999999922e+00 6.509150000000000214e-01 5.491009999999999502e-01 -4.874450000000000172e-01 -3.945199999999999818e-01 2.063129999999999964e-01 2.843714999999999993e+00 1.633940000000000115e-01 -6.302330000000000432e-01 2.334489999999999899e-01 3.115589999999999749e-01 1.080281999999999965e+00 4.745489999999999986e-01 4.738069999999999782e-01 1.102660000000000029e-01 9.599039999999999795e-01 2.460209999999999897e-01 1.828720000000000068e-01 -2.408899999999999930e-02 -1.459999999999999981e-04 -8.803000000000000061e-03 -4.322079999999999811e-01 -3.084810000000000052e-01 -3.534010000000000207e-01
1.887831999999999955e+00 -1.090133999999999936e+00 -3.768066999999999833e+00 -2.289760000000000129e-01 4.109430000000000027e-01 1.495416000000000079e+00 -1.784913999999999890e+00 5.330599999999999922e-02 -7.050950000000000273e-01 4.200150000000000272e-01 -1.886460000000000081e-01 -1.603980000000000128e-01 -1.802303999999999906e+00 -5.056399999999999784e-02 -7.365350000000000508e-01 1.004345000000000043e+00 -3.189739999999999798e-01 3.735749999999999904e-01 -9.924899999999999833e-01 5.241379999999999928e-01 7.838310000000000555e-01 -3.870799999999999935e-02 3.488240000000000229e-01 -5.409300000000000219e-02 1.397146999999999917e+00 -3.148770000000000180e-01 1.606940000000000035e-01 4.368000000000000216e-01 -5.621890000000000498e-01 4.624960000000000182e-01 1.181570999999999927e+00 -4.237900000000000000e-01 -7.927319999999999922e-01 -1.480318999999999940e+00 1.611963000000000035e+00 2.940908999999999995e+00
-3.710299999999999709e-02 6.444980000000000153e-01 -1.367949999999999999e-01 -1.109379999999999949e-01 8.975500000000000145e-02 8.952599999999999447e-02 -3.068198999999999899e+00 -4.730509999999999993e-01 -7.929749999999999854e-01 1.777320000000000011e-01 1.331930000000000058e-01 5.814789999999999681e-01 4.427500000000000185e-02 7.381000000000000408e-03 4.761000000000000232e-01 1.588590000000000002e-01 3.494099999999999984e-02 2.471900000000000139e-02 -1.465460000000000096e-01 -1.370989999999999986e-01 1.419779999999999931e-01 -2.183289999999999953e-01 -2.317690000000000028e-01 8.837599999999999623e-02 -2.227810000000000068e-01 8.468699999999999839e-02 1.991000000000000061e-02 9.801600000000000590e-02 -7.419879999999999809e-01 -3.330799999999999872e-01 2.992707999999999924e+00 1.865209999999999924e-01 7.164500000000000035e-02 3.323059999999999903e-01 4.029320000000000124e-01 -2.308820000000000039e-01
-8.671309999999999851e-01 -4.839939999999999798e-01 -6.380700000000000260e-02 4.132210000000000050e-01 -3.401989999999999736e-01 -6.384779999999999900e-01 5.625980000000000425e-01 -2.295419999999999960e-01 -9.069490000000000052e-01 -2.033507999999999871e+00 3.412669999999999870e-01 7.107320000000000304e-01 -8.900780000000000358e-01 3.854199999999999848e-01 4.897290000000000254e-01 -4.675389999999999824e-01 -3.302550000000000208e-01 2.100619999999999987e-01 1.951702999999999966e+00 -2.766680000000000250e-01 -4.677760000000000251e-01 1.079085999999999990e+00 4.805240000000000067e-01 4.874720000000000164e-01 5.255290000000000239e-01 2.888370000000000104e-01 8.533399999999999319e-02 1.318672999999999984e+00 4.403119999999999812e-01 5.852629999999999777e-01 6.555999999999999328e-02 2.918259999999999743e-01 -5.858970000000000011e-01 -1.658115000000000006e+00 -5.675280000000000324e-01 9.431599999999999706e-02
-4.483320000000000083e-01 4.911269999999999802e-01 -4.607800000000000229e-01 1.934865000000000057e+00 -6.836950000000000527e-01 -5.794300000000000145e-02 -1.558386000000000049e+00 1.899299999999999877e-01 4.626720000000000277e-01 -4.843580000000000108e-01 -1.328820000000000001e-01 -2.156319999999999903e-01 2.302079999999999960e-01 -2.374199999999999922e-02 4.613059999999999938e-01 -8.645800000000000152e-01 3.273209999999999731e-01 9.676970000000000294e-01 -2.056300000000000142e-02 6.862999999999999656e-02 -4.141299999999999842e-02 6.974439999999999529e-01 1.493700000000000062e-02 3.749999999999999861e-03 1.533209999999999962e+00 -7.831420000000000048e-01 -6.027299999999999880e-01 2.698340000000000183e-01 2.977710000000000079e-01 -2.138450000000000073e-01 -9.182649999999999979e-01 1.230959999999999971e-01 -7.578099999999999836e-01 -3.710769999999999902e-01 1.106489999999999974e-01 4.547280000000000211e-01
2.520700000000000024e-02 -8.740919999999999801e-01 1.460493000000000041e+00 -3.486090000000000022e-01 -8.250300000000000689e-02 5.231999999999999845e-02 -1.715376999999999930e+00 1.170231000000000021e+00 2.101907999999999888e+00 3.596400000000000291e-02 -1.634809999999999874e-01 7.355279999999999596e-01 -1.872000000000000053e-01 2.048570000000000113e-01 -2.015534999999999854e+00 2.615900000000000170e-02 -7.019670000000000076e-01 -2.981759999999999966e+00 -2.028300000000000103e-01 1.148259999999999975e-01 -3.484269999999999867e-01 4.592760000000000176e-01 2.430300000000000168e-02 -5.892969999999999597e-01 2.505290000000000017e-01 -1.628419999999999868e-01 4.992900000000000116e-01 5.063889999999999780e-01 7.520599999999999508e-01 5.717240000000000100e-01 1.494594999999999896e+00 -5.420900000000000024e-02 -4.259160000000000168e-01 -3.441049999999999942e-01 -2.271829999999999961e-01 9.396719999999999517e-01
-4.144550000000000178e-01 -2.730000000000000135e-02 -3.129080000000000195e-01 7.734349999999999836e-01 -4.124390000000000001e-01 1.719130000000000102e-01 -1.687099999999999989e-01 1.306430000000000091e-01 -1.303566000000000003e+00 -7.316179999999999906e-01 -3.181680000000000064e-01 3.935540000000000149e-01 -7.638960000000000194e-01 5.387389999999999679e-01 3.102159999999999918e-01 -6.790200000000000402e-02 -2.687809999999999921e-01 -1.341680000000000095e-01 8.543770000000000531e-01 2.640589999999999882e-01 -1.273610000000000020e-01 -1.169507999999999992e+00 3.061249999999999805e-01 9.960219999999999629e-01 1.356199999999999906e-01 4.663300000000000223e-01 1.554679999999999951e-01 3.892789999999999861e-01 -9.817399999999999738e-02 1.869240000000000068e-01 -1.774989999999999901e-01 -1.639670000000000016e-01 3.359139999999999904e-01 1.340875999999999957e+00 -4.170670000000000210e-01 -6.720049999999999635e-01
2.067170000000000119e-01 2.837339999999999862e-01 -1.965227999999999975e+00 1.262529000000000012e+00 1.334549999999999903e-01 1.271576999999999957e+00 5.065049999999999830e-01 -5.667720000000000535e-01 -4.273350000000000204e-01 2.080999999999999951e-03 -3.674120000000000164e-01 -4.167159999999999753e-01 2.822850000000000081e-01 -8.938679999999999959e-01 -2.019699999999999968e-02 5.374899999999999817e-02 -1.266602000000000006e+00 4.307566999999999702e+00 -1.782683000000000018e+00 -6.314020000000000188e-01 1.608789000000000025e+00 1.059272999999999909e+00 9.882999999999999424e-03 6.429510000000000502e-01 -4.726700000000000346e-02 -2.361840000000000050e-01 -1.779717999999999911e+00 -2.314973999999999865e+00 2.366960000000000175e+00 -5.164404000000000217e+00 -4.175800000000000067e-01 1.019900000000000029e+00 3.499669999999999725e-01 1.189365999999999923e+00 1.483079999999999954e-01 1.592748000000000053e+00
-3.326250000000000040e-01 1.663789999999999991e-01 -4.532370000000000010e-01 3.661969999999999947e-01 -2.179700000000000040e-02 6.412630000000000274e-01 -4.257119999999999793e-01 1.041050000000000031e-01 -4.893469999999999764e-01 1.160059999999999980e-01 -1.906960000000000044e-01 5.013379999999999503e-01 -8.205949999999999633e-01 -6.918199999999999350e-02 -5.477490000000000414e-01 -9.857869999999999688e-01 1.703111000000000042e+00 3.283523999999999887e+00 2.511889999999999956e-01 3.182289999999999841e-01 -5.471709999999999630e-01 2.638159999999999950e-01 1.239490000000000036e-01 2.506010000000000182e-01 3.396799999999999820e-02 -1.847640000000000116e-01 2.878839999999999733e-01 1.481300999999999979e+00 -1.531563999999999925e+00 -3.254903999999999797e+00 2.889059999999999961e-01 -8.998000000000000442e-02 2.713090000000000224e-01 -2.366630000000000122e-01 -3.277909999999999990e-01 5.649099999999999955e-02
1.844870000000000121e-01 6.607880000000000420e-01 -1.964110000000000023e-01 8.530020000000000380e-01 -3.801610000000000267e-01 4.226150000000000184e-01 -5.061649999999999761e-01 -5.455079999999999929e-01 -9.689870000000000427e-01 7.543500000000000205e-02 1.319809999999999872e-01 9.110840000000000050e-01 -8.353429999999999467e-01 3.974199999999999955e-01 3.915810000000000124e-01 -1.762529999999999930e-01 -1.164980000000000043e-01 -1.451220000000000010e-01 2.826509999999999856e-01 -3.504700000000000176e-02 -8.365499999999999325e-02 -6.632230000000000070e-01 9.948999999999999511e-03 6.575590000000000046e-01 -1.517519999999999980e-01 2.396280000000000077e-01 -4.247859999999999969e-01 -2.125569999999999959e-01 -6.783630000000000493e-01 -4.810329999999999884e-01 5.315940000000000110e-01 -2.373899999999999968e-02 3.838829999999999742e-01 6.181259999999999533e-01 3.395500000000000185e-01 -4.667279999999999762e-01
1.509751000000000065e+00 2.938390000000000168e-01 -3.602839999999999931e-01 -1.408530000000000060e-01 -9.275200000000000111e-02 4.710260000000000002e-01 2.376500000000000140e-02 -8.167199999999999460e-02 -4.173099999999999726e-02 -6.317789999999999795e-01 3.172619999999999885e-01 -1.318079999999999918e+00 3.172369999999999912e-01 4.846600000000000213e-02 -4.382500000000000284e-02 3.739399999999999669e-02 -2.778289999999999926e-01 1.880640000000000089e-01 -5.547330000000000316e-01 1.062250000000000000e-01 1.416727999999999987e+00 -4.652939999999999854e-01 4.964790000000000036e-01 -3.510969999999999924e-01 3.564050000000000273e-01 2.530459999999999932e-01 1.127928000000000042e+00 -8.348410000000000553e-01 -7.915820000000000078e-01 -8.138619999999999743e-01 -1.605699999999999836e-02 1.499900000000000122e-01 -4.731300000000000089e-02 3.990040000000000253e-01 -4.214729999999999865e-01 -2.275550000000000073e-01