6.137638083999999772e+00 0.000000000000000000e+00 0.000000000000000000e+00 3.133936247999999924e+00 5.134743787999999753e+00 0.000000000000000000e+00 -1.661072419999999883e-01 -2.898869299999999871e-01 9.865417658000000145e+00
5.486558237999999754e+00 0.000000000000000000e+00 0.000000000000000000e+00 2.686809985000000012e+00 5.021528946000000104e+00 0.000000000000000000e+00 -4.888656200000000146e-02 -1.329259210000000024e-01 9.195754098000000099e+00
6.152136013999999875e+00 0.000000000000000000e+00 0.000000000000000000e+00 3.141339029000000060e+00 5.146872745999999665e+00 0.000000000000000000e+00 -1.664996099999999923e-01 -2.905716819999999978e-01 9.888721108000000370e+00
5.895694016000000204e+00 0.000000000000000000e+00 0.000000000000000000e+00 3.010397311000000187e+00 4.932333546999999818e+00 0.000000000000000000e+00 -1.595593379999999950e-01 -2.784596639999999956e-01 9.476525506999999848e+00
5.759801106000000281e+00 0.000000000000000000e+00 0.000000000000000000e+00 3.007645675000000018e+00 4.802707086999999930e+00 0.000000000000000000e+00 -2.409790199999999882e-01 -1.253619460000000019e-01 9.052007206000000750e+00
5.175761973000000182e+00 0.000000000000000000e+00 0.000000000000000000e+00 2.534610650999999937e+00 4.737075126999999775e+00 0.000000000000000000e+00 -4.611729199999999723e-02 -1.253960859999999899e-01 8.674843555000000705e+00
6.169096807999999932e+00 0.000000000000000000e+00 0.000000000000000000e+00 3.149999371999999909e+00 5.161062134999999884e+00 0.000000000000000000e+00 -1.669586319999999957e-01 -2.913727580000000095e-01 9.915983276000000401e+00
5.822422290999999639e+00 0.000000000000000000e+00 0.000000000000000000e+00 3.040345126000000064e+00 4.854922642000000010e+00 0.000000000000000000e+00 -2.435989699999999980e-01 -1.267248940000000046e-01 9.150421614000000758e+00
5.521702066999999658e+00 0.000000000000000000e+00 0.000000000000000000e+00 2.760879329999999854e+00 4.781918629999999837e+00 0.000000000000000000e+00 -6.339999999999999861e-07 -1.230000000000000082e-06 9.002017161999999573e+00
5.456384345000000025e+00 0.000000000000000000e+00 0.000000000000000000e+00 2.685824567000000052e+00 4.791209078999999704e+00 0.000000000000000000e+00 -1.233480309999999969e-01 -1.945456459999999888e-01 8.900608626000000356e+00
5.734251575000000045e+00 0.000000000000000000e+00 0.000000000000000000e+00 2.927963269000000146e+00 4.797270913000000192e+00 0.000000000000000000e+00 -1.551901069999999938e-01 -2.708345719999999957e-01 9.217028761999999986e+00
5.691237003000000350e+00 0.000000000000000000e+00 0.000000000000000000e+00 2.845647666000000076e+00 4.928739711999999606e+00 0.000000000000000000e+00 -6.530000000000000372e-07 -1.267999999999999972e-06 9.278409547000000757e+00
5.152066871999999798e+00 0.000000000000000000e+00 0.000000000000000000e+00 2.523006977000000095e+00 4.715388373999999772e+00 0.000000000000000000e+00 -4.590616299999999983e-02 -1.248220109999999966e-01 8.635129345999999373e+00
